<?xml version="1.0" encoding="UTF-8"?>

<!-- generated on 2022-07-10 21:38:35 by Eclipse SUMO sumo Version 1.13.0
<configuration xmlns:xsi="http://www.w3.org/2001/XMLSchema-instance" xsi:noNamespaceSchemaLocation="http://sumo.dlr.de/xsd/sumoConfiguration.xsd">

    <input>
        <net-file value="data/Eastway-Central.net.xml"/>
        <route-files value="data/cav100-conflict-offpeak.rou.xml"/>
        <additional-files value="data/Eastway-Central.add.xml"/>
    </input>

    <output>
        <tripinfo-output value="tripinfo.xml"/>
    </output>

    <time>
        <step-length value="0.1"/>
    </time>

    <report>
        <verbose value="true"/>
        <log value="logfile.xml"/>
        <duration-log.statistics value="true"/>
    </report>

    <traci_server>
        <remote-port value="61417"/>
    </traci_server>

    <random_number>
        <seed value="19"/>
    </random_number>

    <gui_only>
        <tracker-interval value="0.1"/>
    </gui_only>

</configuration>
-->

<tripinfos xmlns:xsi="http://www.w3.org/2001/XMLSchema-instance" xsi:noNamespaceSchemaLocation="http://sumo.dlr.de/xsd/tripinfo_file.xsd">
    <tripinfo id="SN.cav.2" depart="9.60" departLane="-E3_1" departPos="5.10" departSpeed="24.38" departDelay="0.00" arrival="51.70" arrivalLane="-E1_1" arrivalPos="483.27" arrivalSpeed="24.38" duration="42.10" routeLength="995.03" waitingTime="0.00" waitingCount="0" stopTime="0.00" timeLoss="1.27" rerouteNo="1" devices="tripinfo_SN.cav.2 routing_SN.cav.2" vType="cav" speedFactor="1.21" vaporized=""/>
    <tripinfo id="SN.cav.0" depart="1.10" departLane="-E3_1" departPos="5.10" departSpeed="23.07" departDelay="0.00" arrival="54.80" arrivalLane="-E1_0" arrivalPos="483.27" arrivalSpeed="23.07" duration="53.70" routeLength="995.03" waitingTime="0.40" waitingCount="1" stopTime="0.00" timeLoss="10.47" rerouteNo="1" devices="tripinfo_SN.cav.0 routing_SN.cav.0" vType="cav" speedFactor="1.15" vaporized=""/>
    <tripinfo id="NS.cav.3" depart="4.90" departLane="E1_2" departPos="5.10" departSpeed="18.64" departDelay="0.00" arrival="55.70" arrivalLane="E3_1" arrivalPos="483.00" arrivalSpeed="20.81" duration="50.80" routeLength="995.04" waitingTime="0.00" waitingCount="0" stopTime="0.00" timeLoss="2.93" rerouteNo="1" devices="tripinfo_NS.cav.3 routing_NS.cav.3" vType="cav" speedFactor="1.03" vaporized=""/>
    <tripinfo id="NS.cav.0" depart="0.80" departLane="E1_1" departPos="5.10" departSpeed="18.34" departDelay="0.00" arrival="57.60" arrivalLane="E3_0" arrivalPos="483.00" arrivalSpeed="18.34" duration="56.80" routeLength="995.04" waitingTime="0.00" waitingCount="0" stopTime="0.00" timeLoss="2.51" rerouteNo="1" devices="tripinfo_NS.cav.0 routing_NS.cav.0" vType="cav" speedFactor="0.91" vaporized=""/>
    <tripinfo id="NS.cav.1" depart="4.10" departLane="E1_2" departPos="5.10" departSpeed="18.88" departDelay="0.00" arrival="60.40" arrivalLane="E3_0" arrivalPos="483.00" arrivalSpeed="18.67" duration="56.30" routeLength="995.04" waitingTime="0.00" waitingCount="0" stopTime="0.00" timeLoss="3.53" rerouteNo="1" devices="tripinfo_NS.cav.1 routing_NS.cav.1" vType="cav" speedFactor="0.94" vaporized=""/>
    <tripinfo id="SN.cav.1" depart="2.90" departLane="-E3_2" departPos="5.10" departSpeed="18.16" departDelay="0.00" arrival="60.60" arrivalLane="-E1_0" arrivalPos="483.27" arrivalSpeed="18.16" duration="57.70" routeLength="995.03" waitingTime="0.00" waitingCount="0" stopTime="0.00" timeLoss="2.88" rerouteNo="1" devices="tripinfo_SN.cav.1 routing_SN.cav.1" vType="cav" speedFactor="0.90" vaporized=""/>
    <tripinfo id="NS.cav.4" depart="6.70" departLane="E1_1" departPos="5.10" departSpeed="19.30" departDelay="0.00" arrival="60.90" arrivalLane="E3_1" arrivalPos="483.00" arrivalSpeed="19.29" duration="54.20" routeLength="995.04" waitingTime="0.00" waitingCount="0" stopTime="0.00" timeLoss="2.57" rerouteNo="1" devices="tripinfo_NS.cav.4 routing_NS.cav.4" vType="cav" speedFactor="0.96" vaporized=""/>
    <tripinfo id="NS.cav.5" depart="11.60" departLane="E1_1" departPos="5.10" departSpeed="20.25" departDelay="0.00" arrival="63.60" arrivalLane="E3_1" arrivalPos="483.00" arrivalSpeed="19.96" duration="52.00" routeLength="995.04" waitingTime="0.00" waitingCount="0" stopTime="0.00" timeLoss="2.78" rerouteNo="1" devices="tripinfo_NS.cav.5 routing_NS.cav.5" vType="cav" speedFactor="1.01" vaporized=""/>
    <tripinfo id="NS.cav.2" depart="4.80" departLane="E1_1" departPos="5.10" departSpeed="17.76" departDelay="0.00" arrival="63.80" arrivalLane="E3_0" arrivalPos="483.00" arrivalSpeed="17.69" duration="59.00" routeLength="995.04" waitingTime="0.00" waitingCount="0" stopTime="0.00" timeLoss="2.90" rerouteNo="1" devices="tripinfo_NS.cav.2 routing_NS.cav.2" vType="cav" speedFactor="0.88" vaporized=""/>
    <tripinfo id="SN.cav.3" depart="11.80" departLane="-E3_1" departPos="5.10" departSpeed="18.21" departDelay="0.00" arrival="66.80" arrivalLane="-E1_1" arrivalPos="483.27" arrivalSpeed="18.20" duration="55.00" routeLength="995.03" waitingTime="0.00" waitingCount="0" stopTime="0.00" timeLoss="0.25" rerouteNo="1" devices="tripinfo_SN.cav.3 routing_SN.cav.3" vType="cav" speedFactor="0.90" vaporized=""/>
    <tripinfo id="WS.cav.0" depart="22.80" departLane="E0_0" departPos="5.10" departSpeed="18.71" departDelay="0.00" arrival="75.70" arrivalLane="E3_1" arrivalPos="483.00" arrivalSpeed="24.05" duration="52.90" routeLength="974.37" waitingTime="0.00" waitingCount="0" stopTime="0.00" timeLoss="5.80" rerouteNo="1" devices="tripinfo_WS.cav.0 routing_WS.cav.0" vType="cav" speedFactor="1.20" vaporized=""/>
    <tripinfo id="WE.cav.0" depart="16.30" departLane="E0_0" departPos="5.10" departSpeed="19.21" departDelay="0.00" arrival="76.70" arrivalLane="E2_0" arrivalPos="489.88" arrivalSpeed="19.21" duration="60.40" routeLength="1001.01" waitingTime="0.00" waitingCount="0" stopTime="0.00" timeLoss="8.25" rerouteNo="1" devices="tripinfo_WE.cav.0 routing_WE.cav.0" vType="cav" speedFactor="1.23" vaporized=""/>
    <tripinfo id="EW.cav.0" depart="6.30" departLane="-E2_0" departPos="5.10" departSpeed="18.23" departDelay="0.00" arrival="77.70" arrivalLane="-E0_0" arrivalPos="483.33" arrivalSpeed="18.23" duration="71.40" routeLength="1001.02" waitingTime="8.00" waitingCount="1" stopTime="0.00" timeLoss="16.47" rerouteNo="1" devices="tripinfo_EW.cav.0 routing_EW.cav.0" vType="cav" speedFactor="1.17" vaporized=""/>
    <tripinfo id="SE.cav.0" depart="14.40" departLane="-E3_0" departPos="5.10" departSpeed="20.10" departDelay="0.00" arrival="86.10" arrivalLane="E2_0" arrivalPos="489.88" arrivalSpeed="15.64" duration="71.70" routeLength="976.94" waitingTime="4.80" waitingCount="2" stopTime="0.00" timeLoss="15.18" rerouteNo="1" devices="tripinfo_SE.cav.0 routing_SE.cav.0" vType="cav" speedFactor="1.00" vaporized=""/>
    <tripinfo id="EW.cav.1" depart="29.50" departLane="-E2_0" departPos="5.10" departSpeed="16.94" departDelay="0.00" arrival="88.70" arrivalLane="-E0_0" arrivalPos="483.33" arrivalSpeed="16.94" duration="59.20" routeLength="1001.02" waitingTime="0.00" waitingCount="0" stopTime="0.00" timeLoss="0.06" rerouteNo="1" devices="tripinfo_EW.cav.1 routing_EW.cav.1" vType="cav" speedFactor="1.08" vaporized=""/>
    <tripinfo id="EW.cav.3" depart="32.40" departLane="-E2_0" departPos="5.10" departSpeed="16.78" departDelay="0.00" arrival="93.40" arrivalLane="-E0_0" arrivalPos="483.33" arrivalSpeed="16.76" duration="61.00" routeLength="1001.02" waitingTime="0.00" waitingCount="0" stopTime="0.00" timeLoss="1.30" rerouteNo="1" devices="tripinfo_EW.cav.3 routing_EW.cav.3" vType="cav" speedFactor="1.07" vaporized=""/>
    <tripinfo id="WS.cav.1" depart="24.00" departLane="E0_0" departPos="5.10" departSpeed="13.61" departDelay="0.00" arrival="96.40" arrivalLane="E3_0" arrivalPos="483.00" arrivalSpeed="17.49" duration="72.40" routeLength="974.37" waitingTime="0.50" waitingCount="1" stopTime="0.00" timeLoss="7.65" rerouteNo="1" devices="tripinfo_WS.cav.1 routing_WS.cav.1" vType="cav" speedFactor="0.87" vaporized=""/>
    <tripinfo id="EW.cav.5" depart="38.60" departLane="-E2_1" departPos="5.10" departSpeed="16.50" departDelay="0.00" arrival="99.80" arrivalLane="-E0_0" arrivalPos="483.33" arrivalSpeed="16.50" duration="61.20" routeLength="1001.02" waitingTime="0.00" waitingCount="0" stopTime="0.00" timeLoss="0.49" rerouteNo="1" devices="tripinfo_EW.cav.5 routing_EW.cav.5" vType="cav" speedFactor="1.05" vaporized=""/>
    <tripinfo id="SW.cav.0" depart="27.60" departLane="-E3_3" departPos="5.10" departSpeed="22.80" departDelay="0.00" arrival="102.80" arrivalLane="-E0_1" arrivalPos="483.33" arrivalSpeed="17.73" duration="75.20" routeLength="995.53" waitingTime="15.60" waitingCount="1" stopTime="0.00" timeLoss="24.50" rerouteNo="1" devices="tripinfo_SW.cav.0 routing_SW.cav.0" vType="cav" speedFactor="1.13" vaporized=""/>
    <tripinfo id="EW.cav.2" depart="31.00" departLane="-E2_1" departPos="5.10" departSpeed="13.75" departDelay="0.00" arrival="104.90" arrivalLane="-E0_0" arrivalPos="483.33" arrivalSpeed="13.75" duration="73.90" routeLength="1001.02" waitingTime="0.00" waitingCount="0" stopTime="0.00" timeLoss="1.06" rerouteNo="1" devices="tripinfo_EW.cav.2 routing_EW.cav.2" vType="cav" speedFactor="0.88" vaporized=""/>
    <tripinfo id="BEW.0" depart="34.10" departLane="-E2_1" departPos="12.10" departSpeed="15.65" departDelay="0.00" arrival="107.00" arrivalLane="-E0_0" arrivalPos="483.33" arrivalSpeed="14.53" duration="72.90" routeLength="994.02" waitingTime="0.00" waitingCount="0" stopTime="0.00" timeLoss="9.35" rerouteNo="1" devices="tripinfo_BEW.0 routing_BEW.0" vType="bus" speedFactor="1.00" vaporized=""/>
    <tripinfo id="NS.cav.6" depart="26.60" departLane="E1_1" departPos="5.10" departSpeed="21.41" departDelay="0.00" arrival="107.20" arrivalLane="E3_0" arrivalPos="483.00" arrivalSpeed="21.41" duration="80.60" routeLength="995.04" waitingTime="24.50" waitingCount="1" stopTime="0.00" timeLoss="34.06" rerouteNo="1" devices="tripinfo_NS.cav.6 routing_NS.cav.6" vType="cav" speedFactor="1.06" vaporized=""/>
    <tripinfo id="NS.cav.7" depart="31.00" departLane="E1_1" departPos="5.10" departSpeed="20.23" departDelay="0.00" arrival="108.30" arrivalLane="E3_0" arrivalPos="483.00" arrivalSpeed="20.23" duration="77.30" routeLength="995.04" waitingTime="18.90" waitingCount="1" stopTime="0.00" timeLoss="28.04" rerouteNo="1" devices="tripinfo_NS.cav.7 routing_NS.cav.7" vType="cav" speedFactor="1.01" vaporized=""/>
    <tripinfo id="SN.cav.5" depart="30.80" departLane="-E3_1" departPos="5.10" departSpeed="20.78" departDelay="0.00" arrival="109.20" arrivalLane="-E1_0" arrivalPos="483.27" arrivalSpeed="20.78" duration="78.40" routeLength="995.03" waitingTime="21.00" waitingCount="1" stopTime="0.00" timeLoss="30.51" rerouteNo="1" devices="tripinfo_SN.cav.5 routing_SN.cav.5" vType="cav" speedFactor="1.03" vaporized=""/>
    <tripinfo id="NS.cav.8" depart="34.50" departLane="E1_2" departPos="5.10" departSpeed="22.01" departDelay="0.00" arrival="110.40" arrivalLane="E3_1" arrivalPos="483.00" arrivalSpeed="21.56" duration="75.90" routeLength="995.04" waitingTime="13.70" waitingCount="1" stopTime="0.00" timeLoss="30.65" rerouteNo="1" devices="tripinfo_NS.cav.8 routing_NS.cav.8" vType="cav" speedFactor="1.09" vaporized=""/>
    <tripinfo id="SN.cav.4" depart="22.80" departLane="-E3_2" departPos="5.10" departSpeed="19.28" departDelay="0.00" arrival="111.30" arrivalLane="-E1_0" arrivalPos="483.27" arrivalSpeed="18.91" duration="88.50" routeLength="995.03" waitingTime="27.60" waitingCount="1" stopTime="0.00" timeLoss="36.85" rerouteNo="1" devices="tripinfo_SN.cav.4 routing_SN.cav.4" vType="cav" speedFactor="0.96" vaporized=""/>
    <tripinfo id="SN.cav.6" depart="31.00" departLane="-E3_2" departPos="5.10" departSpeed="20.53" departDelay="0.00" arrival="112.80" arrivalLane="-E1_1" arrivalPos="483.27" arrivalSpeed="20.52" duration="81.80" routeLength="995.03" waitingTime="21.50" waitingCount="1" stopTime="0.00" timeLoss="33.26" rerouteNo="1" devices="tripinfo_SN.cav.6 routing_SN.cav.6" vType="cav" speedFactor="1.02" vaporized=""/>
    <tripinfo id="SN.cav.7" depart="35.50" departLane="-E3_1" departPos="5.10" departSpeed="20.38" departDelay="0.00" arrival="113.50" arrivalLane="-E1_0" arrivalPos="483.27" arrivalSpeed="19.74" duration="78.00" routeLength="995.03" waitingTime="12.40" waitingCount="2" stopTime="0.00" timeLoss="29.16" rerouteNo="1" devices="tripinfo_SN.cav.7 routing_SN.cav.7" vType="cav" speedFactor="1.01" vaporized=""/>
    <tripinfo id="NE.cav.0" depart="31.70" departLane="E1_3" departPos="5.10" departSpeed="17.07" departDelay="0.00" arrival="113.80" arrivalLane="E2_0" arrivalPos="489.88" arrivalSpeed="13.27" duration="82.10" routeLength="1002.68" waitingTime="5.10" waitingCount="1" stopTime="0.00" timeLoss="13.81" rerouteNo="1" devices="tripinfo_NE.cav.0 routing_NE.cav.0" vType="cav" speedFactor="0.85" vaporized=""/>
    <tripinfo id="NS.cav.10" depart="39.60" departLane="E1_2" departPos="5.10" departSpeed="19.32" departDelay="0.00" arrival="114.10" arrivalLane="E3_1" arrivalPos="483.00" arrivalSpeed="19.27" duration="74.50" routeLength="995.04" waitingTime="11.10" waitingCount="1" stopTime="0.00" timeLoss="22.92" rerouteNo="1" devices="tripinfo_NS.cav.10 routing_NS.cav.10" vType="cav" speedFactor="0.96" vaporized=""/>
    <tripinfo id="NS.cav.9" depart="37.40" departLane="E1_1" departPos="5.10" departSpeed="17.08" departDelay="0.00" arrival="114.70" arrivalLane="E3_0" arrivalPos="483.00" arrivalSpeed="17.08" duration="77.30" routeLength="995.04" waitingTime="9.30" waitingCount="1" stopTime="0.00" timeLoss="18.99" rerouteNo="1" devices="tripinfo_NS.cav.9 routing_NS.cav.9" vType="cav" speedFactor="0.85" vaporized=""/>
    <tripinfo id="SN.cav.8" depart="52.00" departLane="-E3_2" departPos="5.10" departSpeed="20.73" departDelay="0.00" arrival="115.30" arrivalLane="-E1_1" arrivalPos="483.27" arrivalSpeed="20.39" duration="63.30" routeLength="995.03" waitingTime="1.90" waitingCount="1" stopTime="0.00" timeLoss="15.22" rerouteNo="1" devices="tripinfo_SN.cav.8 routing_SN.cav.8" vType="cav" speedFactor="1.03" vaporized=""/>
    <tripinfo id="NW.cav.0" depart="50.40" departLane="E1_0" departPos="5.10" departSpeed="18.65" departDelay="0.00" arrival="115.50" arrivalLane="-E0_0" arrivalPos="483.33" arrivalSpeed="14.51" duration="65.10" routeLength="970.93" waitingTime="0.00" waitingCount="0" stopTime="0.00" timeLoss="4.62" rerouteNo="1" devices="tripinfo_NW.cav.0 routing_NW.cav.0" vType="cav" speedFactor="0.93" vaporized=""/>
    <tripinfo id="NS.cav.11" depart="40.60" departLane="E1_1" departPos="5.10" departSpeed="21.19" departDelay="0.00" arrival="116.10" arrivalLane="E3_1" arrivalPos="483.00" arrivalSpeed="20.27" duration="75.50" routeLength="995.04" waitingTime="10.30" waitingCount="1" stopTime="0.00" timeLoss="28.49" rerouteNo="1" devices="tripinfo_NS.cav.11 routing_NS.cav.11" vType="cav" speedFactor="1.05" vaporized=""/>
    <tripinfo id="NS.cav.12" depart="46.30" departLane="E1_1" departPos="5.10" departSpeed="18.67" departDelay="0.00" arrival="116.90" arrivalLane="E3_0" arrivalPos="483.00" arrivalSpeed="18.13" duration="70.60" routeLength="995.04" waitingTime="3.70" waitingCount="1" stopTime="0.00" timeLoss="17.25" rerouteNo="1" devices="tripinfo_NS.cav.12 routing_NS.cav.12" vType="cav" speedFactor="0.93" vaporized=""/>
    <tripinfo id="SN.cav.9" depart="66.10" departLane="-E3_1" departPos="5.10" departSpeed="20.88" departDelay="0.00" arrival="117.60" arrivalLane="-E1_1" arrivalPos="483.27" arrivalSpeed="20.40" duration="51.50" routeLength="995.03" waitingTime="0.00" waitingCount="0" stopTime="0.00" timeLoss="3.81" rerouteNo="1" devices="tripinfo_SN.cav.9 routing_SN.cav.9" vType="cav" speedFactor="1.04" vaporized=""/>
    <tripinfo id="NS.cav.13" depart="46.90" departLane="E1_2" departPos="5.10" departSpeed="20.43" departDelay="0.00" arrival="118.30" arrivalLane="E3_1" arrivalPos="483.00" arrivalSpeed="19.88" duration="71.40" routeLength="995.04" waitingTime="7.50" waitingCount="1" stopTime="0.00" timeLoss="22.68" rerouteNo="1" devices="tripinfo_NS.cav.13 routing_NS.cav.13" vType="cav" speedFactor="1.02" vaporized=""/>
    <tripinfo id="NS.cav.14" depart="53.10" departLane="E1_1" departPos="5.10" departSpeed="20.32" departDelay="0.00" arrival="118.70" arrivalLane="E3_0" arrivalPos="483.00" arrivalSpeed="18.97" duration="65.60" routeLength="995.04" waitingTime="2.60" waitingCount="1" stopTime="0.00" timeLoss="16.62" rerouteNo="1" devices="tripinfo_NS.cav.14 routing_NS.cav.14" vType="cav" speedFactor="1.01" vaporized=""/>
    <tripinfo id="NS.cav.15" depart="67.00" departLane="E1_1" departPos="5.10" departSpeed="21.17" departDelay="0.00" arrival="120.30" arrivalLane="E3_1" arrivalPos="483.00" arrivalSpeed="20.21" duration="53.30" routeLength="995.04" waitingTime="0.00" waitingCount="0" stopTime="0.00" timeLoss="6.25" rerouteNo="1" devices="tripinfo_NS.cav.15 routing_NS.cav.15" vType="cav" speedFactor="1.05" vaporized=""/>
    <tripinfo id="ES.cav.1" depart="35.20" departLane="-E2_3" departPos="5.10" departSpeed="15.81" departDelay="0.00" arrival="128.60" arrivalLane="E3_1" arrivalPos="483.00" arrivalSpeed="20.33" duration="93.40" routeLength="997.05" waitingTime="28.10" waitingCount="1" stopTime="0.00" timeLoss="36.44" rerouteNo="1" devices="tripinfo_ES.cav.1 routing_ES.cav.1" vType="cav" speedFactor="1.01" vaporized=""/>
    <tripinfo id="WN.cav.0" depart="62.20" departLane="E0_2" departPos="5.10" departSpeed="15.04" departDelay="0.00" arrival="129.90" arrivalLane="-E1_0" arrivalPos="483.27" arrivalSpeed="19.34" duration="67.70" routeLength="994.74" waitingTime="0.30" waitingCount="1" stopTime="0.00" timeLoss="8.05" rerouteNo="1" devices="tripinfo_WN.cav.0 routing_WN.cav.0" vType="cav" speedFactor="0.96" vaporized=""/>
    <tripinfo id="ES.cav.0" depart="12.50" departLane="-E2_2" departPos="5.10" departSpeed="14.81" departDelay="0.00" arrival="130.30" arrivalLane="E3_0" arrivalPos="483.00" arrivalSpeed="19.04" duration="117.80" routeLength="1001.38" waitingTime="49.10" waitingCount="1" stopTime="0.00" timeLoss="56.79" rerouteNo="1" devices="tripinfo_ES.cav.0 routing_ES.cav.0" vType="cav" speedFactor="0.95" vaporized=""/>
    <tripinfo id="ES.cav.2" depart="45.80" departLane="-E2_3" departPos="5.10" departSpeed="16.65" departDelay="0.00" arrival="131.30" arrivalLane="E3_1" arrivalPos="483.00" arrivalSpeed="21.09" duration="85.50" routeLength="1001.38" waitingTime="20.00" waitingCount="1" stopTime="0.00" timeLoss="31.19" rerouteNo="1" devices="tripinfo_ES.cav.2 routing_ES.cav.2" vType="cav" speedFactor="1.06" vaporized=""/>
    <tripinfo id="EW.cav.6" depart="76.20" departLane="-E2_0" departPos="5.10" departSpeed="17.55" departDelay="0.00" arrival="141.60" arrivalLane="-E0_0" arrivalPos="483.33" arrivalSpeed="17.55" duration="65.40" routeLength="1001.02" waitingTime="0.00" waitingCount="0" stopTime="0.00" timeLoss="8.34" rerouteNo="1" devices="tripinfo_EW.cav.6 routing_EW.cav.6" vType="cav" speedFactor="1.12" vaporized=""/>
    <tripinfo id="WS.cav.2" depart="70.00" departLane="E0_0" departPos="5.10" departSpeed="16.18" departDelay="0.00" arrival="143.70" arrivalLane="E3_0" arrivalPos="483.00" arrivalSpeed="20.81" duration="73.70" routeLength="974.37" waitingTime="7.90" waitingCount="1" stopTime="0.00" timeLoss="19.27" rerouteNo="1" devices="tripinfo_WS.cav.2 routing_WS.cav.2" vType="cav" speedFactor="1.03" vaporized=""/>
    <tripinfo id="EW.cav.4" depart="38.50" departLane="-E2_0" departPos="5.10" departSpeed="14.14" departDelay="0.00" arrival="148.20" arrivalLane="-E0_0" arrivalPos="483.33" arrivalSpeed="14.14" duration="109.70" routeLength="1001.02" waitingTime="31.20" waitingCount="1" stopTime="0.00" timeLoss="38.86" rerouteNo="1" devices="tripinfo_EW.cav.4 routing_EW.cav.4" vType="cav" speedFactor="0.90" vaporized=""/>
    <tripinfo id="WE.cav.2" depart="50.20" departLane="E0_0" departPos="5.10" departSpeed="14.57" departDelay="0.00" arrival="149.00" arrivalLane="E2_0" arrivalPos="489.88" arrivalSpeed="14.57" duration="98.80" routeLength="1001.01" waitingTime="22.80" waitingCount="1" stopTime="0.00" timeLoss="30.04" rerouteNo="1" devices="tripinfo_WE.cav.2 routing_WE.cav.2" vType="cav" speedFactor="0.93" vaporized=""/>
    <tripinfo id="WE.cav.1" depart="49.50" departLane="E0_1" departPos="5.10" departSpeed="14.47" departDelay="0.00" arrival="149.20" arrivalLane="E2_0" arrivalPos="489.88" arrivalSpeed="14.47" duration="99.70" routeLength="1001.01" waitingTime="23.30" waitingCount="1" stopTime="0.00" timeLoss="30.50" rerouteNo="1" devices="tripinfo_WE.cav.1 routing_WE.cav.1" vType="cav" speedFactor="0.92" vaporized=""/>
    <tripinfo id="EW.cav.7" depart="77.10" departLane="-E2_1" departPos="5.10" departSpeed="15.48" departDelay="0.00" arrival="150.50" arrivalLane="-E0_0" arrivalPos="483.33" arrivalSpeed="15.16" duration="73.40" routeLength="1001.02" waitingTime="0.00" waitingCount="0" stopTime="0.00" timeLoss="8.71" rerouteNo="1" devices="tripinfo_EW.cav.7 routing_EW.cav.7" vType="cav" speedFactor="0.99" vaporized=""/>
    <tripinfo id="EW.cav.9" depart="91.20" departLane="-E2_1" departPos="5.10" departSpeed="16.77" departDelay="0.00" arrival="151.00" arrivalLane="-E0_1" arrivalPos="483.33" arrivalSpeed="16.77" duration="59.80" routeLength="1001.02" waitingTime="0.00" waitingCount="0" stopTime="0.00" timeLoss="0.03" rerouteNo="1" devices="tripinfo_EW.cav.9 routing_EW.cav.9" vType="cav" speedFactor="1.07" vaporized=""/>
    <tripinfo id="WE.cav.4" depart="67.00" departLane="E0_0" departPos="5.10" departSpeed="16.46" departDelay="0.00" arrival="151.10" arrivalLane="E2_0" arrivalPos="489.88" arrivalSpeed="15.81" duration="84.10" routeLength="1001.01" waitingTime="10.40" waitingCount="1" stopTime="0.00" timeLoss="23.29" rerouteNo="1" devices="tripinfo_WE.cav.4 routing_WE.cav.4" vType="cav" speedFactor="1.05" vaporized=""/>
    <tripinfo id="WE.cav.3" depart="56.70" departLane="E0_1" departPos="5.10" departSpeed="16.51" departDelay="0.00" arrival="151.30" arrivalLane="E2_0" arrivalPos="489.88" arrivalSpeed="15.98" duration="94.60" routeLength="1001.01" waitingTime="20.50" waitingCount="1" stopTime="0.00" timeLoss="33.90" rerouteNo="1" devices="tripinfo_WE.cav.3 routing_WE.cav.3" vType="cav" speedFactor="1.06" vaporized=""/>
    <tripinfo id="EN.cav.0" depart="85.70" departLane="-E2_0" departPos="5.10" departSpeed="6.41" departDelay="0.20" arrival="152.00" arrivalLane="-E1_0" arrivalPos="483.27" arrivalSpeed="19.13" duration="66.30" routeLength="980.61" waitingTime="0.00" waitingCount="0" stopTime="0.00" timeLoss="6.69" rerouteNo="1" devices="tripinfo_EN.cav.0 routing_EN.cav.0" vType="cav" speedFactor="0.95" vaporized=""/>
    <tripinfo id="NS.cav.16" depart="76.90" departLane="E1_1" departPos="5.10" departSpeed="22.58" departDelay="0.00" arrival="152.40" arrivalLane="E3_0" arrivalPos="483.00" arrivalSpeed="22.58" duration="75.50" routeLength="995.04" waitingTime="21.60" waitingCount="1" stopTime="0.00" timeLoss="31.41" rerouteNo="1" devices="tripinfo_NS.cav.16 routing_NS.cav.16" vType="cav" speedFactor="1.12" vaporized=""/>
    <tripinfo id="EW.cav.8" depart="85.20" departLane="-E2_0" departPos="5.10" departSpeed="15.57" departDelay="0.00" arrival="152.90" arrivalLane="-E0_0" arrivalPos="483.33" arrivalSpeed="15.30" duration="67.70" routeLength="1001.02" waitingTime="0.00" waitingCount="0" stopTime="0.00" timeLoss="3.36" rerouteNo="1" devices="tripinfo_EW.cav.8 routing_EW.cav.8" vType="cav" speedFactor="1.00" vaporized=""/>
    <tripinfo id="WE.cav.5" depart="68.00" departLane="E0_1" departPos="5.10" departSpeed="17.09" departDelay="0.00" arrival="153.20" arrivalLane="E2_1" arrivalPos="489.88" arrivalSpeed="16.38" duration="85.20" routeLength="1001.01" waitingTime="11.60" waitingCount="1" stopTime="0.00" timeLoss="26.58" rerouteNo="1" devices="tripinfo_WE.cav.5 routing_WE.cav.5" vType="cav" speedFactor="1.09" vaporized=""/>
    <tripinfo id="NS.cav.17" depart="77.90" departLane="E1_2" departPos="5.10" departSpeed="21.18" departDelay="0.00" arrival="153.80" arrivalLane="E3_0" arrivalPos="483.00" arrivalSpeed="20.36" duration="75.90" routeLength="995.04" waitingTime="16.50" waitingCount="1" stopTime="0.00" timeLoss="28.90" rerouteNo="1" devices="tripinfo_NS.cav.17 routing_NS.cav.17" vType="cav" speedFactor="1.05" vaporized=""/>
    <tripinfo id="WE.cav.6" depart="70.60" departLane="E0_1" departPos="5.10" departSpeed="15.19" departDelay="0.00" arrival="155.10" arrivalLane="E2_0" arrivalPos="489.88" arrivalSpeed="15.17" duration="84.50" routeLength="1001.01" waitingTime="6.40" waitingCount="1" stopTime="0.00" timeLoss="18.52" rerouteNo="1" devices="tripinfo_WE.cav.6 routing_WE.cav.6" vType="cav" speedFactor="0.97" vaporized=""/>
    <tripinfo id="WE.cav.8" depart="73.00" departLane="E0_1" departPos="5.10" departSpeed="17.00" departDelay="0.00" arrival="155.20" arrivalLane="E2_1" arrivalPos="489.88" arrivalSpeed="16.35" duration="82.20" routeLength="1001.01" waitingTime="6.30" waitingCount="1" stopTime="0.00" timeLoss="23.30" rerouteNo="1" devices="tripinfo_WE.cav.8 routing_WE.cav.8" vType="cav" speedFactor="1.09" vaporized=""/>
    <tripinfo id="SN.cav.12" depart="76.00" departLane="-E3_2" departPos="5.10" departSpeed="18.69" departDelay="0.00" arrival="156.40" arrivalLane="-E1_1" arrivalPos="483.27" arrivalSpeed="18.69" duration="80.40" routeLength="995.03" waitingTime="18.20" waitingCount="1" stopTime="0.00" timeLoss="27.08" rerouteNo="1" devices="tripinfo_SN.cav.12 routing_SN.cav.12" vType="cav" speedFactor="0.93" vaporized=""/>
    <tripinfo id="SN.cav.10" depart="71.10" departLane="-E3_2" departPos="5.10" departSpeed="18.82" departDelay="0.00" arrival="156.60" arrivalLane="-E1_0" arrivalPos="483.27" arrivalSpeed="18.70" duration="85.50" routeLength="995.03" waitingTime="23.90" waitingCount="1" stopTime="0.00" timeLoss="32.58" rerouteNo="1" devices="tripinfo_SN.cav.10 routing_SN.cav.10" vType="cav" speedFactor="0.94" vaporized=""/>
    <tripinfo id="NS.cav.18" depart="84.60" departLane="E1_1" departPos="5.10" departSpeed="19.33" departDelay="0.00" arrival="157.90" arrivalLane="E3_1" arrivalPos="483.00" arrivalSpeed="19.33" duration="73.30" routeLength="995.04" waitingTime="11.50" waitingCount="1" stopTime="0.00" timeLoss="21.74" rerouteNo="1" devices="tripinfo_NS.cav.18 routing_NS.cav.18" vType="cav" speedFactor="0.96" vaporized=""/>
    <tripinfo id="SN.cav.13" depart="101.20" departLane="-E3_1" departPos="5.10" departSpeed="20.93" departDelay="0.00" arrival="158.40" arrivalLane="-E1_1" arrivalPos="483.27" arrivalSpeed="20.00" duration="57.20" routeLength="995.03" waitingTime="0.00" waitingCount="0" stopTime="0.00" timeLoss="9.61" rerouteNo="1" devices="tripinfo_SN.cav.13 routing_SN.cav.13" vType="cav" speedFactor="1.04" vaporized=""/>
    <tripinfo id="NS.cav.19" depart="87.90" departLane="E1_2" departPos="5.10" departSpeed="17.92" departDelay="0.00" arrival="159.70" arrivalLane="E3_0" arrivalPos="483.00" arrivalSpeed="17.92" duration="71.80" routeLength="995.04" waitingTime="6.30" waitingCount="1" stopTime="0.00" timeLoss="16.23" rerouteNo="1" devices="tripinfo_NS.cav.19 routing_NS.cav.19" vType="cav" speedFactor="0.89" vaporized=""/>
    <tripinfo id="WE.cav.7" depart="70.70" departLane="E0_0" departPos="5.10" departSpeed="12.92" departDelay="0.00" arrival="160.00" arrivalLane="E2_0" arrivalPos="489.88" arrivalSpeed="13.95" duration="89.30" routeLength="1001.01" waitingTime="4.50" waitingCount="1" stopTime="0.00" timeLoss="17.52" rerouteNo="1" devices="tripinfo_WE.cav.7 routing_WE.cav.7" vType="cav" speedFactor="0.89" vaporized=""/>
    <tripinfo id="NS.cav.20" depart="88.80" departLane="E1_1" departPos="5.10" departSpeed="19.63" departDelay="0.00" arrival="160.70" arrivalLane="E3_1" arrivalPos="483.00" arrivalSpeed="19.43" duration="71.90" routeLength="995.04" waitingTime="7.40" waitingCount="1" stopTime="0.00" timeLoss="21.14" rerouteNo="1" devices="tripinfo_NS.cav.20 routing_NS.cav.20" vType="cav" speedFactor="0.98" vaporized=""/>
    <tripinfo id="BSN.0" depart="105.40" departLane="-E3_2" departPos="12.10" departSpeed="20.12" departDelay="0.04" arrival="160.80" arrivalLane="-E1_1" arrivalPos="483.27" arrivalSpeed="19.27" duration="55.40" routeLength="988.03" waitingTime="0.00" waitingCount="0" stopTime="0.00" timeLoss="6.25" rerouteNo="1" devices="tripinfo_BSN.0 routing_BSN.0" vType="bus" speedFactor="1.00" vaporized=""/>
    <tripinfo id="SN.cav.11" depart="75.60" departLane="-E3_1" departPos="5.10" departSpeed="17.28" departDelay="0.00" arrival="161.10" arrivalLane="-E1_0" arrivalPos="483.27" arrivalSpeed="17.27" duration="85.50" routeLength="995.03" waitingTime="17.70" waitingCount="1" stopTime="0.00" timeLoss="27.84" rerouteNo="1" devices="tripinfo_SN.cav.11 routing_SN.cav.11" vType="cav" speedFactor="0.86" vaporized=""/>
    <tripinfo id="SE.cav.1" depart="95.10" departLane="-E3_0" departPos="5.10" departSpeed="19.53" departDelay="0.00" arrival="162.40" arrivalLane="E2_0" arrivalPos="489.88" arrivalSpeed="14.93" duration="67.30" routeLength="976.94" waitingTime="0.00" waitingCount="0" stopTime="0.00" timeLoss="9.16" rerouteNo="1" devices="tripinfo_SE.cav.1 routing_SE.cav.1" vType="cav" speedFactor="0.97" vaporized=""/>
    <tripinfo id="WS.cav.3" depart="100.10" departLane="E0_0" departPos="5.10" departSpeed="17.47" departDelay="0.00" arrival="162.70" arrivalLane="E3_1" arrivalPos="483.00" arrivalSpeed="21.32" duration="62.60" routeLength="974.37" waitingTime="1.60" waitingCount="1" stopTime="0.00" timeLoss="12.22" rerouteNo="1" devices="tripinfo_WS.cav.3 routing_WS.cav.3" vType="cav" speedFactor="1.12" vaporized=""/>