<?xml version="1.0" encoding="UTF-8"?>

<!-- generated on 2022-07-07 16:00:11 by Eclipse SUMO sumo Version 1.13.0
<configuration xmlns:xsi="http://www.w3.org/2001/XMLSchema-instance" xsi:noNamespaceSchemaLocation="http://sumo.dlr.de/xsd/sumoConfiguration.xsd">

    <input>
        <net-file value="data/Eastway-Central.net.xml"/>
        <route-files value="data/cav100offpeak.rou.xml"/>
        <additional-files value="data/Eastway-Central.add.xml"/>
    </input>

    <output>
        <tripinfo-output value="tripinfo.xml"/>
    </output>

    <time>
        <step-length value="0.1"/>
    </time>

    <report>
        <verbose value="true"/>
        <log value="logfile.xml"/>
        <duration-log.statistics value="true"/>
    </report>

    <traci_server>
        <remote-port value="59400"/>
    </traci_server>

    <random_number>
        <seed value="19"/>
    </random_number>

    <gui_only>
        <tracker-interval value="0.1"/>
    </gui_only>

</configuration>
-->

<tripinfos xmlns:xsi="http://www.w3.org/2001/XMLSchema-instance" xsi:noNamespaceSchemaLocation="http://sumo.dlr.de/xsd/tripinfo_file.xsd">
    <tripinfo id="NS.cav.0" depart="0.10" departLane="E1_1" departPos="5.10" departSpeed="18.34" departDelay="0.00" arrival="54.40" arrivalLane="E3_0" arrivalPos="483.00" arrivalSpeed="18.34" duration="54.30" routeLength="995.04" waitingTime="0.00" waitingCount="0" stopTime="0.00" timeLoss="0.00" rerouteNo="1" devices="tripinfo_NS.cav.0 routing_NS.cav.0" vType="cav" speedFactor="0.91" vaporized=""/>
    <tripinfo id="WS.cav.0" depart="1.10" departLane="E0_0" departPos="5.10" departSpeed="17.94" departDelay="0.00" arrival="60.50" arrivalLane="E3_0" arrivalPos="483.00" arrivalSpeed="23.04" duration="59.40" routeLength="974.37" waitingTime="1.20" waitingCount="1" stopTime="0.00" timeLoss="10.25" rerouteNo="1" devices="tripinfo_WS.cav.0 routing_WS.cav.0" vType="cav" speedFactor="1.15" vaporized=""/>
    <tripinfo id="EW.cav.1" depart="5.60" departLane="-E2_1" departPos="5.10" departSpeed="14.68" departDelay="0.00" arrival="74.00" arrivalLane="-E0_0" arrivalPos="483.33" arrivalSpeed="14.68" duration="68.40" routeLength="1001.02" waitingTime="0.00" waitingCount="0" stopTime="0.00" timeLoss="0.15" rerouteNo="1" devices="tripinfo_EW.cav.1 routing_EW.cav.1" vType="cav" speedFactor="0.94" vaporized=""/>
    <tripinfo id="EW.cav.2" depart="10.50" departLane="-E2_0" departPos="5.10" departSpeed="18.96" departDelay="0.00" arrival="75.10" arrivalLane="-E0_1" arrivalPos="483.33" arrivalSpeed="18.46" duration="64.60" routeLength="1001.02" waitingTime="0.00" waitingCount="0" stopTime="0.00" timeLoss="11.74" rerouteNo="1" devices="tripinfo_EW.cav.2 routing_EW.cav.2" vType="cav" speedFactor="1.21" vaporized=""/>
    <tripinfo id="WS.cav.1" depart="11.80" departLane="E0_0" departPos="5.10" departSpeed="14.81" departDelay="0.00" arrival="75.50" arrivalLane="E3_0" arrivalPos="483.00" arrivalSpeed="19.04" duration="63.70" routeLength="974.37" waitingTime="0.00" waitingCount="0" stopTime="0.00" timeLoss="4.23" rerouteNo="1" devices="tripinfo_WS.cav.1 routing_WS.cav.1" vType="cav" speedFactor="0.95" vaporized=""/>
    <tripinfo id="EW.cav.0" depart="4.50" departLane="-E2_0" departPos="5.10" departSpeed="14.13" departDelay="0.00" arrival="76.00" arrivalLane="-E0_0" arrivalPos="483.33" arrivalSpeed="13.78" duration="71.50" routeLength="1001.02" waitingTime="0.00" waitingCount="0" stopTime="0.00" timeLoss="0.54" rerouteNo="1" devices="tripinfo_EW.cav.0 routing_EW.cav.0" vType="cav" speedFactor="0.90" vaporized=""/>
    <tripinfo id="NW.cav.0" depart="16.40" departLane="E1_0" departPos="5.10" departSpeed="24.05" departDelay="0.00" arrival="77.60" arrivalLane="-E0_0" arrivalPos="483.33" arrivalSpeed="15.99" duration="61.20" routeLength="970.93" waitingTime="0.00" waitingCount="0" stopTime="0.00" timeLoss="14.24" rerouteNo="1" devices="tripinfo_NW.cav.0 routing_NW.cav.0" vType="cav" speedFactor="1.20" vaporized=""/>
    <tripinfo id="SN.cav.1" depart="12.50" departLane="-E3_2" departPos="5.10" departSpeed="20.10" departDelay="0.00" arrival="84.20" arrivalLane="-E1_0" arrivalPos="483.27" arrivalSpeed="20.10" duration="71.70" routeLength="995.03" waitingTime="13.10" waitingCount="1" stopTime="0.00" timeLoss="22.18" rerouteNo="1" devices="tripinfo_SN.cav.1 routing_SN.cav.1" vType="cav" speedFactor="1.00" vaporized=""/>
    <tripinfo id="SN.cav.2" depart="23.00" departLane="-E3_1" departPos="5.10" departSpeed="20.78" departDelay="0.00" arrival="86.60" arrivalLane="-E1_1" arrivalPos="483.27" arrivalSpeed="20.77" duration="63.60" routeLength="995.03" waitingTime="4.00" waitingCount="1" stopTime="0.00" timeLoss="15.67" rerouteNo="1" devices="tripinfo_SN.cav.2 routing_SN.cav.2" vType="cav" speedFactor="1.03" vaporized=""/>
    <tripinfo id="SN.cav.0" depart="8.00" departLane="-E3_1" departPos="5.10" departSpeed="17.76" departDelay="0.00" arrival="87.30" arrivalLane="-E1_0" arrivalPos="483.27" arrivalSpeed="17.70" duration="79.30" routeLength="995.03" waitingTime="14.70" waitingCount="1" stopTime="0.00" timeLoss="23.21" rerouteNo="1" devices="tripinfo_SN.cav.0 routing_SN.cav.0" vType="cav" speedFactor="0.88" vaporized=""/>
    <tripinfo id="SN.cav.4" depart="29.70" departLane="-E3_2" departPos="5.10" departSpeed="20.53" departDelay="0.00" arrival="89.30" arrivalLane="-E1_0" arrivalPos="483.27" arrivalSpeed="20.31" duration="59.60" routeLength="995.03" waitingTime="0.00" waitingCount="0" stopTime="0.00" timeLoss="11.12" rerouteNo="1" devices="tripinfo_SN.cav.4 routing_SN.cav.4" vType="cav" speedFactor="1.02" vaporized=""/>
    <tripinfo id="SN.cav.3" depart="29.20" departLane="-E3_1" departPos="5.10" departSpeed="17.68" departDelay="0.00" arrival="90.40" arrivalLane="-E1_0" arrivalPos="483.27" arrivalSpeed="17.44" duration="61.20" routeLength="995.03" waitingTime="0.00" waitingCount="0" stopTime="0.00" timeLoss="4.86" rerouteNo="1" devices="tripinfo_SN.cav.3 routing_SN.cav.3" vType="cav" speedFactor="0.88" vaporized=""/>
    <tripinfo id="NS.cav.2" depart="9.00" departLane="E1_1" departPos="5.10" departSpeed="23.44" departDelay="0.00" arrival="91.30" arrivalLane="E3_0" arrivalPos="483.00" arrivalSpeed="23.44" duration="82.30" routeLength="995.04" waitingTime="27.70" waitingCount="1" stopTime="0.00" timeLoss="39.78" rerouteNo="1" devices="tripinfo_NS.cav.2 routing_NS.cav.2" vType="cav" speedFactor="1.17" vaporized=""/>
    <tripinfo id="SN.cav.5" depart="31.10" departLane="-E3_1" departPos="5.10" departSpeed="21.54" departDelay="0.00" arrival="91.30" arrivalLane="-E1_1" arrivalPos="483.27" arrivalSpeed="21.04" duration="60.20" routeLength="995.03" waitingTime="0.00" waitingCount="0" stopTime="0.00" timeLoss="14.94" rerouteNo="1" devices="tripinfo_SN.cav.5 routing_SN.cav.5" vType="cav" speedFactor="1.09" vaporized=""/>
    <tripinfo id="SW.cav.0" depart="14.40" departLane="-E3_3" departPos="5.10" departSpeed="19.28" departDelay="0.00" arrival="92.30" arrivalLane="-E0_0" arrivalPos="483.33" arrivalSpeed="14.99" duration="77.90" routeLength="995.53" waitingTime="10.30" waitingCount="1" stopTime="0.00" timeLoss="17.89" rerouteNo="1" devices="tripinfo_SW.cav.0 routing_SW.cav.0" vType="cav" speedFactor="0.96" vaporized=""/>
    <tripinfo id="SN.cav.7" depart="38.60" departLane="-E3_2" departPos="5.10" departSpeed="21.22" departDelay="0.00" arrival="93.30" arrivalLane="-E1_1" arrivalPos="483.27" arrivalSpeed="20.39" duration="54.70" routeLength="995.03" waitingTime="0.00" waitingCount="0" stopTime="0.00" timeLoss="7.72" rerouteNo="1" devices="tripinfo_SN.cav.7 routing_SN.cav.7" vType="cav" speedFactor="1.05" vaporized=""/>
    <tripinfo id="NS.cav.5" depart="13.90" departLane="E1_2" departPos="5.10" departSpeed="24.70" departDelay="0.00" arrival="93.60" arrivalLane="E3_1" arrivalPos="483.00" arrivalSpeed="24.68" duration="79.70" routeLength="995.04" waitingTime="24.40" waitingCount="1" stopTime="0.00" timeLoss="39.39" rerouteNo="1" devices="tripinfo_NS.cav.5 routing_NS.cav.5" vType="cav" speedFactor="1.23" vaporized=""/>
    <tripinfo id="NS.cav.1" depart="8.60" departLane="E1_2" departPos="5.10" departSpeed="20.81" departDelay="0.00" arrival="94.00" arrivalLane="E3_0" arrivalPos="483.00" arrivalSpeed="20.68" duration="85.40" routeLength="995.04" waitingTime="28.20" waitingCount="1" stopTime="0.00" timeLoss="37.50" rerouteNo="1" devices="tripinfo_NS.cav.1 routing_NS.cav.1" vType="cav" speedFactor="1.03" vaporized=""/>
    <tripinfo id="SN.cav.6" depart="38.50" departLane="-E3_1" departPos="5.10" departSpeed="18.18" departDelay="0.00" arrival="96.70" arrivalLane="-E1_0" arrivalPos="483.27" arrivalSpeed="18.17" duration="58.20" routeLength="995.03" waitingTime="0.00" waitingCount="0" stopTime="0.00" timeLoss="3.38" rerouteNo="1" devices="tripinfo_SN.cav.6 routing_SN.cav.6" vType="cav" speedFactor="0.90" vaporized=""/>
    <tripinfo id="NS.cav.3" depart="10.90" departLane="E1_2" departPos="5.10" departSpeed="20.25" departDelay="0.00" arrival="96.90" arrivalLane="E3_0" arrivalPos="483.00" arrivalSpeed="20.08" duration="86.00" routeLength="995.04" waitingTime="25.30" waitingCount="1" stopTime="0.00" timeLoss="36.79" rerouteNo="1" devices="tripinfo_NS.cav.3 routing_NS.cav.3" vType="cav" speedFactor="1.01" vaporized=""/>
    <tripinfo id="NS.cav.6" depart="21.90" departLane="E1_1" departPos="5.10" departSpeed="21.41" departDelay="0.00" arrival="97.60" arrivalLane="E3_1" arrivalPos="483.00" arrivalSpeed="21.39" duration="75.70" routeLength="995.04" waitingTime="16.90" waitingCount="1" stopTime="0.00" timeLoss="29.17" rerouteNo="1" devices="tripinfo_NS.cav.6 routing_NS.cav.6" vType="cav" speedFactor="1.06" vaporized=""/>
    <tripinfo id="NS.cav.8" depart="50.20" departLane="E1_2" departPos="5.10" departSpeed="20.43" departDelay="0.00" arrival="101.00" arrivalLane="E3_1" arrivalPos="483.00" arrivalSpeed="20.35" duration="50.80" routeLength="995.04" waitingTime="0.00" waitingCount="0" stopTime="0.00" timeLoss="2.04" rerouteNo="1" devices="tripinfo_NS.cav.8 routing_NS.cav.8" vType="cav" speedFactor="1.02" vaporized=""/>
    <tripinfo id="NS.cav.4" depart="11.40" departLane="E1_1" departPos="5.10" departSpeed="18.21" departDelay="0.00" arrival="101.10" arrivalLane="E3_0" arrivalPos="483.00" arrivalSpeed="18.19" duration="89.70" routeLength="995.04" waitingTime="23.90" waitingCount="1" stopTime="0.00" timeLoss="35.01" rerouteNo="1" devices="tripinfo_NS.cav.4 routing_NS.cav.4" vType="cav" speedFactor="0.90" vaporized=""/>
    <tripinfo id="SN.cav.8" depart="53.30" departLane="-E3_2" departPos="5.10" departSpeed="20.73" departDelay="0.00" arrival="101.50" arrivalLane="-E1_1" arrivalPos="483.27" arrivalSpeed="20.73" duration="48.20" routeLength="995.03" waitingTime="0.00" waitingCount="0" stopTime="0.00" timeLoss="0.17" rerouteNo="1" devices="tripinfo_SN.cav.8 routing_SN.cav.8" vType="cav" speedFactor="1.03" vaporized=""/>
    <tripinfo id="SE.cav.0" depart="31.00" departLane="-E3_0" departPos="5.10" departSpeed="17.07" departDelay="0.00" arrival="101.60" arrivalLane="E2_0" arrivalPos="489.88" arrivalSpeed="13.27" duration="70.60" routeLength="976.94" waitingTime="0.00" waitingCount="0" stopTime="0.00" timeLoss="4.01" rerouteNo="1" devices="tripinfo_SE.cav.0 routing_SE.cav.0" vType="cav" speedFactor="0.85" vaporized=""/>
    <tripinfo id="NS.cav.7" depart="49.60" departLane="E1_1" departPos="5.10" departSpeed="18.67" departDelay="0.00" arrival="104.30" arrivalLane="E3_0" arrivalPos="483.00" arrivalSpeed="18.55" duration="54.70" routeLength="995.04" waitingTime="0.00" waitingCount="0" stopTime="0.00" timeLoss="1.37" rerouteNo="1" devices="tripinfo_NS.cav.7 routing_NS.cav.7" vType="cav" speedFactor="0.93" vaporized=""/>
    <tripinfo id="NS.cav.10" depart="52.30" departLane="E1_2" departPos="5.10" departSpeed="18.73" departDelay="0.00" arrival="106.30" arrivalLane="E3_1" arrivalPos="483.00" arrivalSpeed="18.72" duration="54.00" routeLength="995.04" waitingTime="0.00" waitingCount="0" stopTime="0.00" timeLoss="0.86" rerouteNo="1" devices="tripinfo_NS.cav.10 routing_NS.cav.10" vType="cav" speedFactor="0.93" vaporized=""/>
    <tripinfo id="NS.cav.9" depart="50.30" departLane="E1_1" departPos="5.10" departSpeed="16.85" departDelay="0.00" arrival="107.40" arrivalLane="E3_0" arrivalPos="483.00" arrivalSpeed="18.48" duration="57.10" routeLength="995.04" waitingTime="0.00" waitingCount="0" stopTime="0.00" timeLoss="3.58" rerouteNo="1" devices="tripinfo_NS.cav.9 routing_NS.cav.9" vType="cav" speedFactor="0.92" vaporized=""/>
    <tripinfo id="NS.cav.12" depart="56.80" departLane="E1_2" departPos="5.10" departSpeed="21.23" departDelay="0.00" arrival="108.30" arrivalLane="E3_1" arrivalPos="483.00" arrivalSpeed="20.18" duration="51.50" routeLength="995.04" waitingTime="0.00" waitingCount="0" stopTime="0.00" timeLoss="4.59" rerouteNo="1" devices="tripinfo_NS.cav.12 routing_NS.cav.12" vType="cav" speedFactor="1.06" vaporized=""/>
    <tripinfo id="NS.cav.11" depart="53.20" departLane="E1_1" departPos="5.10" departSpeed="18.65" departDelay="0.00" arrival="110.20" arrivalLane="E3_0" arrivalPos="483.00" arrivalSpeed="18.47" duration="57.00" routeLength="995.04" waitingTime="0.00" waitingCount="0" stopTime="0.00" timeLoss="3.65" rerouteNo="1" devices="tripinfo_NS.cav.11 routing_NS.cav.11" vType="cav" speedFactor="0.93" vaporized=""/>
    <tripinfo id="WN.cav.1" depart="60.00" departLane="E0_2" departPos="5.10" departSpeed="16.83" departDelay="0.00" arrival="116.00" arrivalLane="-E1_1" arrivalPos="483.27" arrivalSpeed="21.63" duration="56.00" routeLength="990.42" waitingTime="0.00" waitingCount="0" stopTime="0.00" timeLoss="2.83" rerouteNo="1" devices="tripinfo_WN.cav.1 routing_WN.cav.1" vType="cav" speedFactor="1.08" vaporized=""/>
    <tripinfo id="ES.cav.1" depart="21.90" departLane="-E2_3" departPos="5.10" departSpeed="17.73" departDelay="0.00" arrival="116.10" arrivalLane="E3_1" arrivalPos="483.00" arrivalSpeed="22.79" duration="94.20" routeLength="997.05" waitingTime="34.30" waitingCount="1" stopTime="0.00" timeLoss="43.39" rerouteNo="1" devices="tripinfo_ES.cav.1 routing_ES.cav.1" vType="cav" speedFactor="1.13" vaporized=""/>
    <tripinfo id="WN.cav.0" depart="22.80" departLane="E0_2" departPos="5.10" departSpeed="16.94" departDelay="0.00" arrival="118.40" arrivalLane="-E1_1" arrivalPos="483.27" arrivalSpeed="21.36" duration="95.60" routeLength="994.74" waitingTime="32.90" waitingCount="1" stopTime="0.00" timeLoss="42.58" rerouteNo="1" devices="tripinfo_WN.cav.0 routing_WN.cav.0" vType="cav" speedFactor="1.08" vaporized=""/>
    <tripinfo id="ES.cav.0" depart="9.30" departLane="-E2_2" departPos="5.10" departSpeed="15.01" departDelay="0.00" arrival="119.80" arrivalLane="E3_0" arrivalPos="483.00" arrivalSpeed="19.29" duration="110.50" routeLength="1001.38" waitingTime="42.50" waitingCount="1" stopTime="0.00" timeLoss="50.29" rerouteNo="1" devices="tripinfo_ES.cav.0 routing_ES.cav.0" vType="cav" speedFactor="0.96" vaporized=""/>
    <tripinfo id="ES.cav.3" depart="54.90" departLane="-E2_3" departPos="5.10" departSpeed="15.80" departDelay="0.00" arrival="120.80" arrivalLane="E3_1" arrivalPos="483.00" arrivalSpeed="20.31" duration="65.90" routeLength="997.05" waitingTime="0.00" waitingCount="0" stopTime="0.00" timeLoss="8.92" rerouteNo="1" devices="tripinfo_ES.cav.3 routing_ES.cav.3" vType="cav" speedFactor="1.01" vaporized=""/>
    <tripinfo id="ES.cav.2" depart="43.20" departLane="-E2_2" departPos="5.10" departSpeed="16.48" departDelay="0.00" arrival="122.40" arrivalLane="E3_1" arrivalPos="483.00" arrivalSpeed="19.65" duration="79.20" routeLength="1001.38" waitingTime="12.10" waitingCount="1" stopTime="0.00" timeLoss="24.30" rerouteNo="1" devices="tripinfo_ES.cav.2 routing_ES.cav.2" vType="cav" speedFactor="1.05" vaporized=""/>
    <tripinfo id="ES.cav.4" depart="62.30" departLane="-E2_2" departPos="5.10" departSpeed="15.74" departDelay="0.00" arrival="124.70" arrivalLane="E3_1" arrivalPos="483.00" arrivalSpeed="19.71" duration="62.40" routeLength="1001.38" waitingTime="0.00" waitingCount="0" stopTime="0.00" timeLoss="4.97" rerouteNo="1" devices="tripinfo_ES.cav.4 routing_ES.cav.4" vType="cav" speedFactor="1.01" vaporized=""/>
    <tripinfo id="WS.cav.2" depart="31.00" departLane="E0_0" departPos="5.10" departSpeed="16.78" departDelay="0.00" arrival="132.80" arrivalLane="E3_1" arrivalPos="483.00" arrivalSpeed="21.57" duration="101.80" routeLength="974.37" waitingTime="38.40" waitingCount="1" stopTime="0.00" timeLoss="49.23" rerouteNo="1" devices="tripinfo_WS.cav.2 routing_WS.cav.2" vType="cav" speedFactor="1.07" vaporized=""/>
    <tripinfo id="EW.cav.4" depart="31.70" departLane="-E2_1" departPos="5.10" departSpeed="15.81" departDelay="0.00" arrival="134.30" arrivalLane="-E0_0" arrivalPos="483.33" arrivalSpeed="15.81" duration="102.60" routeLength="1001.02" waitingTime="31.30" waitingCount="1" stopTime="0.00" timeLoss="39.28" rerouteNo="1" devices="tripinfo_EW.cav.4 routing_EW.cav.4" vType="cav" speedFactor="1.01" vaporized=""/>
    <tripinfo id="EW.cav.8" depart="46.90" departLane="-E2_1" departPos="5.10" departSpeed="16.65" departDelay="0.00" arrival="135.60" arrivalLane="-E0_1" arrivalPos="483.33" arrivalSpeed="16.65" duration="88.70" routeLength="1001.02" waitingTime="18.70" waitingCount="1" stopTime="0.00" timeLoss="28.52" rerouteNo="1" devices="tripinfo_EW.cav.8 routing_EW.cav.8" vType="cav" speedFactor="1.06" vaporized=""/>
    <tripinfo id="WE.cav.0" depart="27.60" departLane="E0_1" departPos="5.10" departSpeed="15.73" departDelay="0.00" arrival="138.90" arrivalLane="E2_0" arrivalPos="489.88" arrivalSpeed="15.73" duration="111.30" routeLength="1001.01" waitingTime="40.00" waitingCount="1" stopTime="0.00" timeLoss="47.63" rerouteNo="1" devices="tripinfo_WE.cav.0 routing_WE.cav.0" vType="cav" speedFactor="1.01" vaporized=""/>
    <tripinfo id="EW.cav.3" depart="18.70" departLane="-E2_1" departPos="5.10" departSpeed="13.61" departDelay="0.00" arrival="139.80" arrivalLane="-E0_0" arrivalPos="483.33" arrivalSpeed="13.61" duration="121.10" routeLength="1001.02" waitingTime="40.00" waitingCount="1" stopTime="0.00" timeLoss="47.51" rerouteNo="1" devices="tripinfo_EW.cav.3 routing_EW.cav.3" vType="cav" speedFactor="0.87" vaporized=""/>
    <tripinfo id="WE.cav.1" depart="66.10" departLane="E0_0" departPos="5.10" departSpeed="15.04" departDelay="0.00" arrival="140.20" arrivalLane="E2_0" arrivalPos="489.88" arrivalSpeed="15.04" duration="74.10" routeLength="1001.01" waitingTime="0.00" waitingCount="0" stopTime="0.00" timeLoss="7.50" rerouteNo="1" devices="tripinfo_WE.cav.1 routing_WE.cav.1" vType="cav" speedFactor="0.96" vaporized=""/>
    <tripinfo id="EW.cav.7" depart="40.60" departLane="-E2_0" departPos="5.10" departSpeed="15.03" departDelay="0.00" arrival="140.90" arrivalLane="-E0_1" arrivalPos="483.33" arrivalSpeed="15.02" duration="100.30" routeLength="1001.02" waitingTime="18.10" waitingCount="1" stopTime="0.00" timeLoss="33.60" rerouteNo="1" devices="tripinfo_EW.cav.7 routing_EW.cav.7" vType="cav" speedFactor="0.96" vaporized=""/>
    <tripinfo id="EW.cav.5" depart="34.50" departLane="-E2_0" departPos="5.10" departSpeed="15.85" departDelay="0.00" arrival="141.80" arrivalLane="-E0_0" arrivalPos="483.33" arrivalSpeed="15.14" duration="107.30" routeLength="1001.02" waitingTime="29.00" waitingCount="1" stopTime="0.00" timeLoss="44.09" rerouteNo="1" devices="tripinfo_EW.cav.5 routing_EW.cav.5" vType="cav" speedFactor="1.01" vaporized=""/>
    <tripinfo id="EW.cav.9" depart="76.90" departLane="-E2_0" departPos="5.10" departSpeed="17.55" departDelay="0.00" arrival="142.80" arrivalLane="-E0_1" arrivalPos="483.33" arrivalSpeed="16.64" duration="65.90" routeLength="1001.02" waitingTime="0.00" waitingCount="0" stopTime="0.00" timeLoss="8.84" rerouteNo="1" devices="tripinfo_EW.cav.9 routing_EW.cav.9" vType="cav" speedFactor="1.12" vaporized=""/>
    <tripinfo id="WE.cav.2" depart="71.10" departLane="E0_1" departPos="5.10" departSpeed="14.64" departDelay="0.00" arrival="144.00" arrivalLane="E2_0" arrivalPos="489.88" arrivalSpeed="14.62" duration="72.90" routeLength="1001.01" waitingTime="0.00" waitingCount="0" stopTime="0.00" timeLoss="4.47" rerouteNo="1" devices="tripinfo_WE.cav.2 routing_WE.cav.2" vType="cav" speedFactor="0.94" vaporized=""/>
    <tripinfo id="SE.cav.1" depart="85.50" departLane="-E3_0" departPos="5.10" departSpeed="22.41" departDelay="0.00" arrival="144.80" arrivalLane="E2_1" arrivalPos="489.88" arrivalSpeed="17.39" duration="59.30" routeLength="976.94" waitingTime="0.00" waitingCount="0" stopTime="0.00" timeLoss="8.56" rerouteNo="1" devices="tripinfo_SE.cav.1 routing_SE.cav.1" vType="cav" speedFactor="1.11" vaporized=""/>
    <tripinfo id="EW.cav.6" depart="37.40" departLane="-E2_1" departPos="5.10" departSpeed="13.29" departDelay="0.00" arrival="145.80" arrivalLane="-E0_0" arrivalPos="483.33" arrivalSpeed="13.27" duration="108.40" routeLength="1001.02" waitingTime="22.60" waitingCount="1" stopTime="0.00" timeLoss="32.99" rerouteNo="1" devices="tripinfo_EW.cav.6 routing_EW.cav.6" vType="cav" speedFactor="0.85" vaporized=""/>
    <tripinfo id="EW.cav.10" depart="77.90" departLane="-E2_1" departPos="5.10" departSpeed="15.48" departDelay="0.00" arrival="146.60" arrivalLane="-E0_1" arrivalPos="483.33" arrivalSpeed="15.45" duration="68.70" routeLength="1001.02" waitingTime="0.00" waitingCount="0" stopTime="0.00" timeLoss="3.97" rerouteNo="1" devices="tripinfo_EW.cav.10 routing_EW.cav.10" vType="cav" speedFactor="0.99" vaporized=""/>
    <tripinfo id="SN.cav.10" depart="70.00" departLane="-E3_2" departPos="5.10" departSpeed="22.49" departDelay="0.00" arrival="147.10" arrivalLane="-E1_0" arrivalPos="483.27" arrivalSpeed="22.49" duration="77.10" routeLength="995.03" waitingTime="22.90" waitingCount="1" stopTime="0.00" timeLoss="32.81" rerouteNo="1" devices="tripinfo_SN.cav.10 routing_SN.cav.10" vType="cav" speedFactor="1.12" vaporized=""/>
    <tripinfo id="NW.cav.1" depart="70.10" departLane="E1_0" departPos="5.10" departSpeed="20.81" departDelay="0.00" arrival="147.60" arrivalLane="-E0_0" arrivalPos="483.33" arrivalSpeed="15.10" duration="77.50" routeLength="970.93" waitingTime="8.50" waitingCount="2" stopTime="0.00" timeLoss="23.27" rerouteNo="1" devices="tripinfo_NW.cav.1 routing_NW.cav.1" vType="cav" speedFactor="1.03" vaporized=""/>
    <tripinfo id="NS.cav.14" depart="68.10" departLane="E1_2" departPos="5.10" departSpeed="21.17" departDelay="0.00" arrival="148.20" arrivalLane="E3_0" arrivalPos="483.00" arrivalSpeed="21.17" duration="80.10" routeLength="995.04" waitingTime="23.70" waitingCount="1" stopTime="0.00" timeLoss="33.11" rerouteNo="1" devices="tripinfo_NS.cav.14 routing_NS.cav.14" vType="cav" speedFactor="1.05" vaporized=""/>
    <tripinfo id="SN.cav.9" depart="67.20" departLane="-E3_1" departPos="5.10" departSpeed="20.88" departDelay="0.00" arrival="148.90" arrivalLane="-E1_0" arrivalPos="483.27" arrivalSpeed="20.27" duration="81.70" routeLength="995.03" waitingTime="24.30" waitingCount="1" stopTime="0.00" timeLoss="33.97" rerouteNo="1" devices="tripinfo_SN.cav.9 routing_SN.cav.9" vType="cav" speedFactor="1.04" vaporized=""/>
    <tripinfo id="SN.cav.12" depart="77.10" departLane="-E3_2" departPos="5.10" departSpeed="22.58" departDelay="0.00" arrival="149.80" arrivalLane="-E1_1" arrivalPos="483.27" arrivalSpeed="22.54" duration="72.70" routeLength="995.03" waitingTime="16.60" waitingCount="1" stopTime="0.00" timeLoss="28.64" rerouteNo="1" devices="tripinfo_SN.cav.12 routing_SN.cav.12" vType="cav" speedFactor="1.12" vaporized=""/>
    <tripinfo id="NS.cav.13" depart="67.10" departLane="E1_1" departPos="5.10" departSpeed="19.41" departDelay="0.00" arrival="150.60" arrivalLane="E3_0" arrivalPos="483.00" arrivalSpeed="19.18" duration="83.50" routeLength="995.04" waitingTime="22.80" waitingCount="1" stopTime="0.00" timeLoss="32.19" rerouteNo="1" devices="tripinfo_NS.cav.13 routing_NS.cav.13" vType="cav" speedFactor="0.96" vaporized=""/>
    <tripinfo id="NS.cav.15" depart="69.20" departLane="E1_1" departPos="5.10" departSpeed="21.17" departDelay="0.00" arrival="151.00" arrivalLane="E3_1" arrivalPos="483.00" arrivalSpeed="21.16" duration="81.80" routeLength="995.04" waitingTime="21.80" waitingCount="1" stopTime="0.00" timeLoss="34.72" rerouteNo="1" devices="tripinfo_NS.cav.15 routing_NS.cav.15" vType="cav" speedFactor="1.05" vaporized=""/>
    <tripinfo id="SN.cav.11" depart="76.20" departLane="-E3_1" departPos="5.10" departSpeed="18.69" departDelay="0.00" arrival="153.40" arrivalLane="-E1_0" arrivalPos="483.27" arrivalSpeed="18.67" duration="77.20" routeLength="995.03" waitingTime="10.20" waitingCount="1" stopTime="0.00" timeLoss="23.96" rerouteNo="1" devices="tripinfo_SN.cav.11 routing_SN.cav.11" vType="cav" speedFactor="0.93" vaporized=""/>
    <tripinfo id="SN.cav.13" depart="81.50" departLane="-E3_2" departPos="5.10" departSpeed="19.33" departDelay="0.00" arrival="154.60" arrivalLane="-E1_1" arrivalPos="483.27" arrivalSpeed="19.32" duration="73.10" routeLength="995.03" waitingTime="10.10" waitingCount="1" stopTime="0.00" timeLoss="21.59" rerouteNo="1" devices="tripinfo_SN.cav.13 routing_SN.cav.13" vType="cav" speedFactor="0.96" vaporized=""/>
    <tripinfo id="NS.cav.17" depart="70.80" departLane="E1_1" departPos="5.10" departSpeed="17.93" departDelay="0.00" arrival="154.70" arrivalLane="E3_0" arrivalPos="483.00" arrivalSpeed="17.91" duration="83.90" routeLength="995.04" waitingTime="17.40" waitingCount="1" stopTime="0.00" timeLoss="28.34" rerouteNo="1" devices="tripinfo_NS.cav.17 routing_NS.cav.17" vType="cav" speedFactor="0.89" vaporized=""/>
    <tripinfo id="NS.cav.16" depart="70.70" departLane="E1_2" departPos="5.10" departSpeed="19.53" departDelay="0.00" arrival="154.80" arrivalLane="E3_1" arrivalPos="483.00" arrivalSpeed="19.49" duration="84.10" routeLength="995.04" waitingTime="21.00" waitingCount="1" stopTime="0.00" timeLoss="33.06" rerouteNo="1" devices="tripinfo_NS.cav.16 routing_NS.cav.16" vType="cav" speedFactor="0.97" vaporized=""/>
    <tripinfo id="SN.cav.14" depart="82.60" departLane="-E3_1" departPos="5.10" departSpeed="20.02" departDelay="0.00" arrival="156.00" arrivalLane="-E1_1" arrivalPos="483.27" arrivalSpeed="18.29" duration="73.40" routeLength="995.03" waitingTime="4.40" waitingCount="1" stopTime="0.00" timeLoss="23.65" rerouteNo="1" devices="tripinfo_SN.cav.14 routing_SN.cav.14" vType="cav" speedFactor="1.00" vaporized=""/>
    <tripinfo id="NS.cav.18" depart="73.10" departLane="E1_2" departPos="5.10" departSpeed="21.85" departDelay="0.00" arrival="156.40" arrivalLane="E3_1" arrivalPos="483.00" arrivalSpeed="19.97" duration="83.30" routeLength="995.04" waitingTime="14.60" waitingCount="2" stopTime="0.00" timeLoss="37.72" rerouteNo="1" devices="tripinfo_NS.cav.18 routing_NS.cav.18" vType="cav" speedFactor="1.09" vaporized=""/>
    <tripinfo id="NS.cav.19" depart="92.10" departLane="E1_2" departPos="5.10" departSpeed="18.81" departDelay="0.00" arrival="158.60" arrivalLane="E3_1" arrivalPos="483.00" arrivalSpeed="18.37" duration="66.50" routeLength="995.04" waitingTime="0.00" waitingCount="0" stopTime="0.00" timeLoss="13.55" rerouteNo="1" devices="tripinfo_NS.cav.19 routing_NS.cav.19" vType="cav" speedFactor="0.93" vaporized=""/>
    <tripinfo id="SN.cav.15" depart="85.20" departLane="-E3_2" departPos="5.10" departSpeed="17.92" departDelay="0.00" arrival="158.80" arrivalLane="-E1_0" arrivalPos="483.27" arrivalSpeed="17.85" duration="73.60" routeLength="995.03" waitingTime="5.20" waitingCount="1" stopTime="0.00" timeLoss="18.01" rerouteNo="1" devices="tripinfo_SN.cav.15 routing_SN.cav.15" vType="cav" speedFactor="0.89" vaporized=""/>
    <tripinfo id="SN.cav.17" depart="99.70" departLane="-E3_2" departPos="5.10" departSpeed="21.10" departDelay="0.00" arrival="159.90" arrivalLane="-E1_1" arrivalPos="483.27" arrivalSpeed="20.79" duration="60.20" routeLength="995.03" waitingTime="0.00" waitingCount="0" stopTime="0.00" timeLoss="13.02" rerouteNo="1" devices="tripinfo_SN.cav.17 routing_SN.cav.17" vType="cav" speedFactor="1.05" vaporized=""/>
    <tripinfo id="NW.cav.2" depart="100.20" departLane="E1_0" departPos="5.10" departSpeed="20.51" departDelay="0.00" arrival="160.00" arrivalLane="-E0_0" arrivalPos="483.33" arrivalSpeed="15.95" duration="59.80" routeLength="970.93" waitingTime="0.00" waitingCount="0" stopTime="0.00" timeLoss="4.72" rerouteNo="1" devices="tripinfo_NW.cav.2 routing_NW.cav.2" vType="cav" speedFactor="1.02" vaporized=""/>
    <tripinfo id="NS.cav.20" depart="99.70" departLane="E1_1" departPos="5.10" departSpeed="22.47" departDelay="0.00" arrival="160.20" arrivalLane="E3_1" arrivalPos="483.00" arrivalSpeed="19.79" duration="60.50" routeLength="995.04" waitingTime="0.00" waitingCount="0" stopTime="0.00" timeLoss="16.18" rerouteNo="1" devices="tripinfo_NS.cav.20 routing_NS.cav.20" vType="cav" speedFactor="1.12" vaporized=""/>
    <tripinfo id="SN.cav.16" depart="91.20" departLane="-E3_1" departPos="5.10" departSpeed="16.68" departDelay="0.00" arrival="160.90" arrivalLane="-E1_0" arrivalPos="483.27" arrivalSpeed="16.37" duration="69.70" routeLength="995.03" waitingTime="0.00" waitingCount="0" stopTime="0.00" timeLoss="10.01" rerouteNo="1" devices="tripinfo_SN.cav.16 routing_SN.cav.16" vType="cav" speedFactor="0.83" vaporized=""/>
    <tripinfo id="SN.cav.19" depart="104.10" departLane="-E3_2" departPos="5.10" departSpeed="21.43" departDelay="0.00" arrival="161.90" arrivalLane="-E1_1" arrivalPos="483.27" arrivalSpeed="20.54" duration="57.80" routeLength="995.03" waitingTime="0.00" waitingCount="0" stopTime="0.00" timeLoss="11.32" rerouteNo="1" devices="tripinfo_SN.cav.19 routing_SN.cav.19" vType="cav" speedFactor="1.07" vaporized=""/>