<?xml version="1.0" encoding="UTF-8"?>

<!-- generated on 2022-11-28 17:15:54 by Eclipse SUMO sumo Version 1.13.0
<configuration xmlns:xsi="http://www.w3.org/2001/XMLSchema-instance" xsi:noNamespaceSchemaLocation="http://sumo.dlr.de/xsd/sumoConfiguration.xsd">

    <input>
        <net-file value="data/Eastway-Central.net.xml"/>
        <route-files value="data/cav100.rou.xml"/>
        <additional-files value="data/Eastway-Central.add.xml"/>
    </input>

    <output>
        <tripinfo-output value="result/2022-11-28-17-15-53tripinfo.xml"/>
    </output>

    <time>
        <step-length value="0.1"/>
    </time>

    <report>
        <verbose value="true"/>
        <log value="result/2022-11-28-17-15-53logfile.xml"/>
        <duration-log.statistics value="true"/>
    </report>

    <traci_server>
        <remote-port value="53605"/>
    </traci_server>

    <random_number>
        <random value="true"/>
    </random_number>

    <gui_only>
        <tracker-interval value="0.1"/>
    </gui_only>

</configuration>
-->

<tripinfos xmlns:xsi="http://www.w3.org/2001/XMLSchema-instance" xsi:noNamespaceSchemaLocation="http://sumo.dlr.de/xsd/tripinfo_file.xsd">
    <tripinfo id="SN.cav.1" depart="6.10" departLane="-E3_2" departPos="5.10" departSpeed="22.33" departDelay="0.00" arrival="102.30" arrivalLane="-E1_0" arrivalPos="983.25" arrivalSpeed="22.33" duration="96.20" routeLength="1995.02" waitingTime="0.00" waitingCount="0" stopTime="0.00" timeLoss="6.83" rerouteNo="1" devices="tripinfo_SN.cav.1 routing_SN.cav.1" vType="cav" speedFactor="1.11" vaporized=""/>
    <tripinfo id="SN.cav.0" depart="0.20" departLane="-E3_1" departPos="5.10" departSpeed="23.11" departDelay="0.00" arrival="102.90" arrivalLane="-E1_1" arrivalPos="983.25" arrivalSpeed="23.11" duration="102.70" routeLength="1995.02" waitingTime="5.30" waitingCount="1" stopTime="0.00" timeLoss="16.33" rerouteNo="1" devices="tripinfo_SN.cav.0 routing_SN.cav.0" vType="cav" speedFactor="1.15" vaporized=""/>
    <tripinfo id="BNS.0" depart="0.00" departLane="E1_1" departPos="12.10" departSpeed="20.12" departDelay="0.00" arrival="112.80" arrivalLane="E3_1" arrivalPos="983.03" arrivalSpeed="20.12" duration="112.80" routeLength="1988.03" waitingTime="0.00" waitingCount="0" stopTime="0.00" timeLoss="13.92" rerouteNo="1" devices="tripinfo_BNS.0 routing_BNS.0" vType="bus" speedFactor="1.00" vaporized=""/>
    <tripinfo id="NS.cav.0" depart="4.90" departLane="E1_2" departPos="5.10" departSpeed="19.05" departDelay="0.00" arrival="112.80" arrivalLane="E3_0" arrivalPos="983.03" arrivalSpeed="19.05" duration="107.90" routeLength="1995.03" waitingTime="0.00" waitingCount="0" stopTime="0.00" timeLoss="3.14" rerouteNo="1" devices="tripinfo_NS.cav.0 routing_NS.cav.0" vType="cav" speedFactor="0.95" vaporized=""/>
    <tripinfo id="SN.cav.2" depart="10.00" departLane="-E3_1" departPos="5.10" departSpeed="19.43" departDelay="0.00" arrival="115.30" arrivalLane="-E1_0" arrivalPos="983.25" arrivalSpeed="19.43" duration="105.30" routeLength="1995.02" waitingTime="0.00" waitingCount="0" stopTime="0.00" timeLoss="2.54" rerouteNo="1" devices="tripinfo_SN.cav.2 routing_SN.cav.2" vType="cav" speedFactor="0.97" vaporized=""/>
    <tripinfo id="SN.cav.5" depart="18.90" departLane="-E3_1" departPos="5.10" departSpeed="22.10" departDelay="0.00" arrival="118.90" arrivalLane="-E1_0" arrivalPos="983.25" arrivalSpeed="21.97" duration="100.00" routeLength="1995.02" waitingTime="0.00" waitingCount="0" stopTime="0.00" timeLoss="9.63" rerouteNo="1" devices="tripinfo_SN.cav.5 routing_SN.cav.5" vType="cav" speedFactor="1.10" vaporized=""/>
    <tripinfo id="NS.cav.1" depart="19.20" departLane="E1_2" departPos="5.10" departSpeed="19.95" departDelay="0.00" arrival="119.70" arrivalLane="E3_0" arrivalPos="983.03" arrivalSpeed="19.94" duration="100.50" routeLength="1995.03" waitingTime="0.00" waitingCount="0" stopTime="0.00" timeLoss="0.46" rerouteNo="1" devices="tripinfo_NS.cav.1 routing_NS.cav.1" vType="cav" speedFactor="0.99" vaporized=""/>
    <tripinfo id="NS.cav.2" depart="19.40" departLane="E1_1" departPos="5.10" departSpeed="20.15" departDelay="0.00" arrival="123.10" arrivalLane="E3_0" arrivalPos="983.03" arrivalSpeed="20.05" duration="103.70" routeLength="1995.03" waitingTime="0.00" waitingCount="0" stopTime="0.00" timeLoss="4.69" rerouteNo="1" devices="tripinfo_NS.cav.2 routing_NS.cav.2" vType="cav" speedFactor="1.00" vaporized=""/>
    <tripinfo id="SN.cav.7" depart="35.50" departLane="-E3_1" departPos="5.10" departSpeed="24.21" departDelay="0.00" arrival="123.60" arrivalLane="-E1_1" arrivalPos="983.25" arrivalSpeed="24.21" duration="88.10" routeLength="1995.02" waitingTime="0.00" waitingCount="0" stopTime="0.00" timeLoss="5.67" rerouteNo="1" devices="tripinfo_SN.cav.7 routing_SN.cav.7" vType="cav" speedFactor="1.20" vaporized=""/>
    <tripinfo id="NS.cav.5" depart="24.70" departLane="E1_2" departPos="5.10" departSpeed="20.36" departDelay="0.00" arrival="124.90" arrivalLane="E3_1" arrivalPos="983.03" arrivalSpeed="20.36" duration="100.20" routeLength="1995.03" waitingTime="0.00" waitingCount="0" stopTime="0.00" timeLoss="2.17" rerouteNo="1" devices="tripinfo_NS.cav.5 routing_NS.cav.5" vType="cav" speedFactor="1.01" vaporized=""/>
    <tripinfo id="SN.cav.3" depart="10.40" departLane="-E3_2" departPos="5.10" departSpeed="17.32" departDelay="0.00" arrival="126.40" arrivalLane="-E1_0" arrivalPos="983.25" arrivalSpeed="17.32" duration="116.00" routeLength="1995.02" waitingTime="0.00" waitingCount="0" stopTime="0.00" timeLoss="0.82" rerouteNo="1" devices="tripinfo_SN.cav.3 routing_SN.cav.3" vType="cav" speedFactor="0.86" vaporized=""/>
    <tripinfo id="NS.cav.3" depart="21.00" departLane="E1_2" departPos="5.10" departSpeed="19.81" departDelay="0.00" arrival="127.40" arrivalLane="E3_0" arrivalPos="983.03" arrivalSpeed="19.78" duration="106.40" routeLength="1995.03" waitingTime="0.00" waitingCount="0" stopTime="0.00" timeLoss="5.70" rerouteNo="1" devices="tripinfo_NS.cav.3 routing_NS.cav.3" vType="cav" speedFactor="0.98" vaporized=""/>
    <tripinfo id="NS.cav.7" depart="28.70" departLane="E1_2" departPos="5.10" departSpeed="20.48" departDelay="0.00" arrival="128.30" arrivalLane="E3_1" arrivalPos="983.03" arrivalSpeed="20.38" duration="99.60" routeLength="1995.03" waitingTime="0.00" waitingCount="0" stopTime="0.00" timeLoss="2.19" rerouteNo="1" devices="tripinfo_NS.cav.7 routing_NS.cav.7" vType="cav" speedFactor="1.02" vaporized=""/>
    <tripinfo id="SN.cav.4" depart="17.00" departLane="-E3_2" departPos="5.10" departSpeed="18.94" departDelay="0.00" arrival="128.70" arrivalLane="-E1_0" arrivalPos="983.25" arrivalSpeed="18.45" duration="111.70" routeLength="1995.02" waitingTime="0.00" waitingCount="0" stopTime="0.00" timeLoss="6.34" rerouteNo="1" devices="tripinfo_SN.cav.4 routing_SN.cav.4" vType="cav" speedFactor="0.94" vaporized=""/>
    <tripinfo id="NS.cav.6" depart="28.40" departLane="E1_1" departPos="5.10" departSpeed="21.33" departDelay="0.00" arrival="130.80" arrivalLane="E3_0" arrivalPos="983.03" arrivalSpeed="20.92" duration="102.40" routeLength="1995.03" waitingTime="0.00" waitingCount="0" stopTime="0.00" timeLoss="8.83" rerouteNo="1" devices="tripinfo_NS.cav.6 routing_NS.cav.6" vType="cav" speedFactor="1.06" vaporized=""/>
    <tripinfo id="NS.cav.4" depart="23.10" departLane="E1_1" departPos="5.10" departSpeed="18.70" departDelay="0.00" arrival="133.50" arrivalLane="E3_0" arrivalPos="983.03" arrivalSpeed="18.66" duration="110.40" routeLength="1995.03" waitingTime="0.00" waitingCount="0" stopTime="0.00" timeLoss="3.70" rerouteNo="1" devices="tripinfo_NS.cav.4 routing_NS.cav.4" vType="cav" speedFactor="0.93" vaporized=""/>
    <tripinfo id="NW.cav.0" depart="15.10" departLane="E1_0" departPos="5.10" departSpeed="19.81" departDelay="0.00" arrival="134.30" arrivalLane="-E0_0" arrivalPos="983.27" arrivalSpeed="15.41" duration="119.20" routeLength="1970.87" waitingTime="0.00" waitingCount="0" stopTime="0.00" timeLoss="4.43" rerouteNo="1" devices="tripinfo_NW.cav.0 routing_NW.cav.0" vType="cav" speedFactor="0.98" vaporized=""/>
    <tripinfo id="SN.cav.6" depart="30.60" departLane="-E3_2" departPos="5.10" departSpeed="19.53" departDelay="0.00" arrival="134.50" arrivalLane="-E1_0" arrivalPos="983.25" arrivalSpeed="19.52" duration="103.90" routeLength="1995.02" waitingTime="0.00" waitingCount="0" stopTime="0.00" timeLoss="1.73" rerouteNo="1" devices="tripinfo_SN.cav.6 routing_SN.cav.6" vType="cav" speedFactor="0.97" vaporized=""/>
    <tripinfo id="NS.cav.11" depart="35.40" departLane="E1_2" departPos="5.10" departSpeed="20.88" departDelay="0.00" arrival="134.90" arrivalLane="E3_1" arrivalPos="983.03" arrivalSpeed="20.84" duration="99.50" routeLength="1995.03" waitingTime="0.00" waitingCount="0" stopTime="0.00" timeLoss="3.95" rerouteNo="1" devices="tripinfo_NS.cav.11 routing_NS.cav.11" vType="cav" speedFactor="1.04" vaporized=""/>
    <tripinfo id="NS.cav.9" depart="31.90" departLane="E1_2" departPos="5.10" departSpeed="20.12" departDelay="0.00" arrival="136.00" arrivalLane="E3_0" arrivalPos="983.03" arrivalSpeed="19.71" duration="104.10" routeLength="1995.03" waitingTime="0.00" waitingCount="0" stopTime="0.00" timeLoss="4.87" rerouteNo="1" devices="tripinfo_NS.cav.9 routing_NS.cav.9" vType="cav" speedFactor="1.00" vaporized=""/>
    <tripinfo id="NW.cav.1" depart="22.40" departLane="E1_0" departPos="5.10" departSpeed="21.87" departDelay="0.00" arrival="139.20" arrivalLane="-E0_0" arrivalPos="983.27" arrivalSpeed="16.99" duration="116.80" routeLength="1970.87" waitingTime="0.00" waitingCount="0" stopTime="0.00" timeLoss="12.87" rerouteNo="1" devices="tripinfo_NW.cav.1 routing_NW.cav.1" vType="cav" speedFactor="1.09" vaporized=""/>
    <tripinfo id="SE.cav.0" depart="13.00" departLane="-E3_0" departPos="5.10" departSpeed="18.78" departDelay="0.00" arrival="141.90" arrivalLane="E2_0" arrivalPos="983.96" arrivalSpeed="14.61" duration="128.90" routeLength="1971.03" waitingTime="0.00" waitingCount="0" stopTime="0.00" timeLoss="7.89" rerouteNo="1" devices="tripinfo_SE.cav.0 routing_SE.cav.0" vType="cav" speedFactor="0.93" vaporized=""/>
    <tripinfo id="NS.cav.8" depart="29.70" departLane="E1_1" departPos="5.10" departSpeed="18.10" departDelay="0.00" arrival="142.20" arrivalLane="E3_0" arrivalPos="983.03" arrivalSpeed="18.10" duration="112.50" routeLength="1995.03" waitingTime="0.00" waitingCount="0" stopTime="0.00" timeLoss="2.29" rerouteNo="1" devices="tripinfo_NS.cav.8 routing_NS.cav.8" vType="cav" speedFactor="0.90" vaporized=""/>
    <tripinfo id="NS.cav.13" depart="37.20" departLane="E1_2" departPos="5.10" departSpeed="19.23" departDelay="0.00" arrival="142.50" arrivalLane="E3_1" arrivalPos="983.03" arrivalSpeed="19.23" duration="105.30" routeLength="1995.03" waitingTime="0.00" waitingCount="0" stopTime="0.00" timeLoss="1.51" rerouteNo="1" devices="tripinfo_NS.cav.13 routing_NS.cav.13" vType="cav" speedFactor="0.96" vaporized=""/>
    <tripinfo id="SE.cav.1" depart="18.10" departLane="-E3_0" departPos="5.10" departSpeed="20.18" departDelay="0.00" arrival="144.50" arrivalLane="E2_0" arrivalPos="983.96" arrivalSpeed="15.50" duration="126.40" routeLength="1971.03" waitingTime="0.00" waitingCount="0" stopTime="0.00" timeLoss="13.78" rerouteNo="1" devices="tripinfo_SE.cav.1 routing_SE.cav.1" vType="cav" speedFactor="1.00" vaporized=""/>
    <tripinfo id="NS.cav.10" depart="33.90" departLane="E1_1" departPos="5.10" departSpeed="19.26" departDelay="0.00" arrival="144.70" arrivalLane="E3_0" arrivalPos="983.03" arrivalSpeed="18.92" duration="110.80" routeLength="1995.03" waitingTime="0.00" waitingCount="0" stopTime="0.00" timeLoss="7.23" rerouteNo="1" devices="tripinfo_NS.cav.10 routing_NS.cav.10" vType="cav" speedFactor="0.96" vaporized=""/>
    <tripinfo id="ES.cav.2" depart="17.00" departLane="-E2_3" departPos="5.10" departSpeed="17.38" departDelay="0.00" arrival="145.10" arrivalLane="E3_1" arrivalPos="983.03" arrivalSpeed="21.78" duration="128.10" routeLength="1991.17" waitingTime="15.00" waitingCount="1" stopTime="0.00" timeLoss="25.34" rerouteNo="1" devices="tripinfo_ES.cav.2 routing_ES.cav.2" vType="cav" speedFactor="1.11" vaporized=""/>
    <tripinfo id="SE.cav.2" depart="19.90" departLane="-E3_0" departPos="5.10" departSpeed="20.78" departDelay="0.00" arrival="146.80" arrivalLane="E2_0" arrivalPos="983.96" arrivalSpeed="15.84" duration="126.90" routeLength="1971.03" waitingTime="0.00" waitingCount="0" stopTime="0.00" timeLoss="17.57" rerouteNo="1" devices="tripinfo_SE.cav.2 routing_SE.cav.2" vType="cav" speedFactor="1.03" vaporized=""/>
    <tripinfo id="WN.cav.3" depart="14.10" departLane="E0_3" departPos="5.10" departSpeed="15.90" departDelay="0.00" arrival="147.40" arrivalLane="-E1_0" arrivalPos="983.25" arrivalSpeed="20.44" duration="133.30" routeLength="1990.40" waitingTime="11.60" waitingCount="1" stopTime="0.00" timeLoss="21.14" rerouteNo="1" devices="tripinfo_WN.cav.3 routing_WN.cav.3" vType="cav" speedFactor="1.02" vaporized=""/>
    <tripinfo id="ES.cav.1" depart="1.10" departLane="-E2_3" departPos="5.10" departSpeed="15.99" departDelay="0.00" arrival="148.40" arrivalLane="E3_0" arrivalPos="983.03" arrivalSpeed="20.45" duration="147.30" routeLength="1995.50" waitingTime="26.40" waitingCount="1" stopTime="0.00" timeLoss="35.53" rerouteNo="1" devices="tripinfo_ES.cav.1 routing_ES.cav.1" vType="cav" speedFactor="1.02" vaporized=""/>
    <tripinfo id="SE.cav.4" depart="22.40" departLane="-E3_0" departPos="5.10" departSpeed="0.45" departDelay="0.40" arrival="149.10" arrivalLane="E2_0" arrivalPos="983.96" arrivalSpeed="15.99" duration="126.70" routeLength="1971.03" waitingTime="0.00" waitingCount="0" stopTime="0.00" timeLoss="18.54" rerouteNo="1" devices="tripinfo_SE.cav.4 routing_SE.cav.4" vType="cav" speedFactor="1.04" vaporized=""/>
    <tripinfo id="WN.cav.1" depart="9.90" departLane="E0_3" departPos="5.10" departSpeed="15.12" departDelay="0.00" arrival="151.20" arrivalLane="-E1_0" arrivalPos="983.25" arrivalSpeed="19.40" duration="141.30" routeLength="1994.72" waitingTime="14.20" waitingCount="1" stopTime="0.00" timeLoss="23.18" rerouteNo="1" devices="tripinfo_WN.cav.1 routing_WN.cav.1" vType="cav" speedFactor="0.97" vaporized=""/>
    <tripinfo id="SE.cav.5" depart="38.80" departLane="-E3_0" departPos="5.10" departSpeed="21.38" departDelay="0.00" arrival="154.20" arrivalLane="E2_1" arrivalPos="983.96" arrivalSpeed="16.63" duration="115.40" routeLength="1971.03" waitingTime="0.00" waitingCount="0" stopTime="0.00" timeLoss="9.08" rerouteNo="1" devices="tripinfo_SE.cav.5 routing_SE.cav.5" vType="cav" speedFactor="1.06" vaporized=""/>
    <tripinfo id="WN.cav.2" depart="12.80" departLane="E0_2" departPos="5.10" departSpeed="15.24" departDelay="0.00" arrival="154.30" arrivalLane="-E1_0" arrivalPos="983.25" arrivalSpeed="19.45" duration="141.50" routeLength="1994.72" waitingTime="9.90" waitingCount="1" stopTime="0.00" timeLoss="24.24" rerouteNo="1" devices="tripinfo_WN.cav.2 routing_WN.cav.2" vType="cav" speedFactor="0.97" vaporized=""/>
    <tripinfo id="ES.cav.3" depart="18.00" departLane="-E2_2" departPos="5.10" departSpeed="15.59" departDelay="0.00" arrival="156.10" arrivalLane="E3_0" arrivalPos="983.03" arrivalSpeed="18.02" duration="138.10" routeLength="1995.50" waitingTime="8.10" waitingCount="1" stopTime="0.00" timeLoss="23.46" rerouteNo="1" devices="tripinfo_ES.cav.3 routing_ES.cav.3" vType="cav" speedFactor="1.00" vaporized=""/>
    <tripinfo id="ES.cav.4" depart="18.50" departLane="-E2_3" departPos="5.10" departSpeed="14.01" departDelay="0.00" arrival="156.10" arrivalLane="E3_1" arrivalPos="983.03" arrivalSpeed="18.02" duration="137.60" routeLength="1991.17" waitingTime="0.00" waitingCount="0" stopTime="0.00" timeLoss="10.23" rerouteNo="1" devices="tripinfo_ES.cav.4 routing_ES.cav.4" vType="cav" speedFactor="0.90" vaporized=""/>
    <tripinfo id="SE.cav.3" depart="21.90" departLane="-E3_0" departPos="5.10" departSpeed="17.82" departDelay="0.00" arrival="156.90" arrivalLane="E2_0" arrivalPos="983.96" arrivalSpeed="13.86" duration="135.00" routeLength="1971.03" waitingTime="0.00" waitingCount="0" stopTime="0.00" timeLoss="7.50" rerouteNo="1" devices="tripinfo_SE.cav.3 routing_SE.cav.3" vType="cav" speedFactor="0.89" vaporized=""/>
    <tripinfo id="WN.cav.4" depart="32.00" departLane="E0_3" departPos="5.10" departSpeed="16.77" departDelay="0.00" arrival="156.90" arrivalLane="-E1_0" arrivalPos="983.25" arrivalSpeed="21.11" duration="124.90" routeLength="1994.72" waitingTime="0.00" waitingCount="0" stopTime="0.00" timeLoss="18.32" rerouteNo="1" devices="tripinfo_WN.cav.4 routing_WN.cav.4" vType="cav" speedFactor="1.07" vaporized=""/>
    <tripinfo id="ES.cav.5" depart="23.30" departLane="-E2_2" departPos="5.10" departSpeed="14.19" departDelay="0.00" arrival="159.60" arrivalLane="E3_0" arrivalPos="983.03" arrivalSpeed="18.18" duration="136.30" routeLength="1991.17" waitingTime="0.00" waitingCount="0" stopTime="0.00" timeLoss="10.62" rerouteNo="1" devices="tripinfo_ES.cav.5 routing_ES.cav.5" vType="cav" speedFactor="0.91" vaporized=""/>
    <tripinfo id="WS.cav.0" depart="24.50" departLane="E0_0" departPos="5.10" departSpeed="16.37" departDelay="0.00" arrival="163.20" arrivalLane="E3_1" arrivalPos="983.03" arrivalSpeed="22.47" duration="138.70" routeLength="1974.35" waitingTime="17.30" waitingCount="1" stopTime="0.00" timeLoss="37.60" rerouteNo="1" devices="tripinfo_WS.cav.0 routing_WS.cav.0" vType="cav" speedFactor="1.12" vaporized=""/>
    <tripinfo id="WN.cav.0" depart="7.40" departLane="E0_2" departPos="5.10" departSpeed="12.14" departDelay="0.00" arrival="164.70" arrivalLane="-E1_0" arrivalPos="983.25" arrivalSpeed="15.61" duration="157.30" routeLength="1990.40" waitingTime="1.50" waitingCount="1" stopTime="0.00" timeLoss="10.47" rerouteNo="1" devices="tripinfo_WN.cav.0 routing_WN.cav.0" vType="cav" speedFactor="0.78" vaporized=""/>
    <tripinfo id="EW.cav.3" depart="35.50" departLane="-E2_0" departPos="5.10" departSpeed="17.90" departDelay="0.00" arrival="166.60" arrivalLane="-E0_0" arrivalPos="983.27" arrivalSpeed="17.90" duration="131.10" routeLength="1995.06" waitingTime="9.20" waitingCount="1" stopTime="0.00" timeLoss="19.61" rerouteNo="1" devices="tripinfo_EW.cav.3 routing_EW.cav.3" vType="cav" speedFactor="1.14" vaporized=""/>
    <tripinfo id="WE.cav.1" depart="2.10" departLane="E0_1" departPos="5.10" departSpeed="16.79" departDelay="0.00" arrival="174.80" arrivalLane="E2_1" arrivalPos="983.96" arrivalSpeed="16.79" duration="172.70" routeLength="1995.09" waitingTime="41.20" waitingCount="1" stopTime="0.00" timeLoss="53.78" rerouteNo="1" devices="tripinfo_WE.cav.1 routing_WE.cav.1" vType="cav" speedFactor="1.07" vaporized=""/>
    <tripinfo id="SE.cav.6" depart="46.10" departLane="-E3_0" departPos="5.10" departSpeed="18.50" departDelay="0.00" arrival="175.30" arrivalLane="E2_0" arrivalPos="983.96" arrivalSpeed="14.39" duration="129.20" routeLength="1971.03" waitingTime="0.00" waitingCount="0" stopTime="0.00" timeLoss="6.42" rerouteNo="1" devices="tripinfo_SE.cav.6 routing_SE.cav.6" vType="cav" speedFactor="0.92" vaporized=""/>
    <tripinfo id="ES.cav.0" depart="0.20" departLane="-E2_2" departPos="5.10" departSpeed="10.53" departDelay="0.00" arrival="176.90" arrivalLane="E3_0" arrivalPos="983.03" arrivalSpeed="13.54" duration="176.70" routeLength="1995.50" waitingTime="0.00" waitingCount="0" stopTime="0.00" timeLoss="6.97" rerouteNo="1" devices="tripinfo_ES.cav.0 routing_ES.cav.0" vType="cav" speedFactor="0.67" vaporized=""/>
    <tripinfo id="WE.cav.3" depart="20.30" departLane="E0_1" departPos="5.10" departSpeed="16.91" departDelay="0.00" arrival="177.70" arrivalLane="E2_0" arrivalPos="983.96" arrivalSpeed="16.51" duration="157.40" routeLength="1995.09" waitingTime="19.00" waitingCount="1" stopTime="0.00" timeLoss="39.36" rerouteNo="1" devices="tripinfo_WE.cav.3 routing_WE.cav.3" vType="cav" speedFactor="1.08" vaporized=""/>
    <tripinfo id="NW.cav.2" depart="46.60" departLane="E1_0" departPos="5.10" departSpeed="17.96" departDelay="0.00" arrival="177.80" arrivalLane="-E0_0" arrivalPos="983.27" arrivalSpeed="13.97" duration="131.20" routeLength="1970.87" waitingTime="0.00" waitingCount="0" stopTime="0.00" timeLoss="4.74" rerouteNo="1" devices="tripinfo_NW.cav.2 routing_NW.cav.2" vType="cav" speedFactor="0.89" vaporized=""/>
    <tripinfo id="EW.cav.2" depart="23.10" departLane="-E2_0" departPos="5.10" departSpeed="15.17" departDelay="0.00" arrival="178.60" arrivalLane="-E0_1" arrivalPos="983.27" arrivalSpeed="15.17" duration="155.50" routeLength="1995.06" waitingTime="8.20" waitingCount="1" stopTime="0.00" timeLoss="23.98" rerouteNo="1" devices="tripinfo_EW.cav.2 routing_EW.cav.2" vType="cav" speedFactor="0.97" vaporized=""/>
    <tripinfo id="WE.cav.9" depart="40.70" departLane="E0_1" departPos="5.10" departSpeed="18.14" departDelay="0.00" arrival="179.60" arrivalLane="E2_0" arrivalPos="983.96" arrivalSpeed="17.26" duration="138.90" routeLength="1995.09" waitingTime="8.30" waitingCount="1" stopTime="0.00" timeLoss="28.90" rerouteNo="1" devices="tripinfo_WE.cav.9 routing_WE.cav.9" vType="cav" speedFactor="1.16" vaporized=""/>
    <tripinfo id="WE.cav.0" depart="1.20" departLane="E0_0" departPos="5.10" departSpeed="14.40" departDelay="0.00" arrival="180.10" arrivalLane="E2_0" arrivalPos="983.96" arrivalSpeed="14.40" duration="178.90" routeLength="1995.09" waitingTime="31.80" waitingCount="1" stopTime="0.00" timeLoss="40.26" rerouteNo="1" devices="tripinfo_WE.cav.0 routing_WE.cav.0" vType="cav" speedFactor="0.92" vaporized=""/>
    <tripinfo id="WE.cav.6" depart="25.90" departLane="E0_1" departPos="5.10" departSpeed="16.56" departDelay="0.00" arrival="181.80" arrivalLane="E2_1" arrivalPos="983.96" arrivalSpeed="16.52" duration="155.90" routeLength="1995.09" waitingTime="16.40" waitingCount="1" stopTime="0.00" timeLoss="42.25" rerouteNo="1" devices="tripinfo_WE.cav.6 routing_WE.cav.6" vType="cav" speedFactor="1.12" vaporized=""/>
    <tripinfo id="EW.cav.0" depart="1.70" departLane="-E2_0" departPos="5.10" departSpeed="14.31" departDelay="0.00" arrival="181.90" arrivalLane="-E0_0" arrivalPos="983.27" arrivalSpeed="14.30" duration="180.20" routeLength="1995.06" waitingTime="31.80" waitingCount="1" stopTime="0.00" timeLoss="40.72" rerouteNo="1" devices="tripinfo_EW.cav.0 routing_EW.cav.0" vType="cav" speedFactor="0.91" vaporized=""/>
    <tripinfo id="EW.cav.4" depart="53.20" departLane="-E2_1" departPos="5.10" departSpeed="15.73" departDelay="0.00" arrival="183.30" arrivalLane="-E0_1" arrivalPos="983.27" arrivalSpeed="15.72" duration="130.10" routeLength="1995.06" waitingTime="0.00" waitingCount="0" stopTime="0.00" timeLoss="3.23" rerouteNo="1" devices="tripinfo_EW.cav.4 routing_EW.cav.4" vType="cav" speedFactor="1.01" vaporized=""/>
    <tripinfo id="WE.cav.5" depart="25.80" departLane="E0_0" departPos="5.10" departSpeed="15.41" departDelay="0.00" arrival="184.40" arrivalLane="E2_0" arrivalPos="983.96" arrivalSpeed="15.40" duration="158.60" routeLength="1995.09" waitingTime="7.10" waitingCount="1" stopTime="0.00" timeLoss="29.10" rerouteNo="1" devices="tripinfo_WE.cav.5 routing_WE.cav.5" vType="cav" speedFactor="0.98" vaporized=""/>
    <tripinfo id="WE.cav.7" depart="32.90" departLane="E0_1" departPos="5.10" departSpeed="15.54" departDelay="0.00" arrival="187.10" arrivalLane="E2_1" arrivalPos="983.96" arrivalSpeed="15.54" duration="154.20" routeLength="1995.09" waitingTime="6.30" waitingCount="1" stopTime="0.00" timeLoss="25.75" rerouteNo="1" devices="tripinfo_WE.cav.7 routing_WE.cav.7" vType="cav" speedFactor="0.99" vaporized=""/>
    <tripinfo id="NS.cav.15" depart="45.20" departLane="E1_2" departPos="5.10" departSpeed="22.88" departDelay="0.00" arrival="187.40" arrivalLane="E3_0" arrivalPos="983.03" arrivalSpeed="22.88" duration="142.20" routeLength="1995.03" waitingTime="42.60" waitingCount="1" stopTime="0.00" timeLoss="54.93" rerouteNo="1" devices="tripinfo_NS.cav.15 routing_NS.cav.15" vType="cav" speedFactor="1.14" vaporized=""/>
    <tripinfo id="NW.cav.3" depart="53.60" departLane="E1_0" departPos="5.10" departSpeed="20.12" departDelay="0.00" arrival="187.50" arrivalLane="-E0_0" arrivalPos="983.27" arrivalSpeed="15.63" duration="133.90" routeLength="1970.87" waitingTime="0.00" waitingCount="0" stopTime="0.00" timeLoss="20.92" rerouteNo="1" devices="tripinfo_NW.cav.3 routing_NW.cav.3" vType="cav" speedFactor="1.00" vaporized=""/>
    <tripinfo id="WE.cav.2" depart="15.70" departLane="E0_0" departPos="5.10" departSpeed="14.03" departDelay="0.00" arrival="187.80" arrivalLane="E2_0" arrivalPos="983.96" arrivalSpeed="14.00" duration="172.10" routeLength="1995.09" waitingTime="17.90" waitingCount="1" stopTime="0.00" timeLoss="29.81" rerouteNo="1" devices="tripinfo_WE.cav.2 routing_WE.cav.2" vType="cav" speedFactor="0.90" vaporized=""/>
    <tripinfo id="NE.cav.0" depart="63.10" departLane="E1_3" departPos="5.10" departSpeed="23.50" departDelay="0.00" arrival="189.10" arrivalLane="E2_1" arrivalPos="983.96" arrivalSpeed="17.42" duration="126.00" routeLength="1996.75" waitingTime="12.90" waitingCount="1" stopTime="0.00" timeLoss="28.09" rerouteNo="1" devices="tripinfo_NE.cav.0 routing_NE.cav.0" vType="cav" speedFactor="1.17" vaporized=""/>
    <tripinfo id="SN.cav.13" depart="55.00" departLane="-E3_2" departPos="5.10" departSpeed="22.69" departDelay="0.00" arrival="190.20" arrivalLane="-E1_1" arrivalPos="983.25" arrivalSpeed="22.69" duration="135.20" routeLength="1995.02" waitingTime="32.30" waitingCount="1" stopTime="0.00" timeLoss="47.27" rerouteNo="1" devices="tripinfo_SN.cav.13 routing_SN.cav.13" vType="cav" speedFactor="1.13" vaporized=""/>
    <tripinfo id="EW.cav.1" depart="14.90" departLane="-E2_1" departPos="5.10" departSpeed="13.01" departDelay="0.00" arrival="190.30" arrivalLane="-E0_0" arrivalPos="983.27" arrivalSpeed="12.97" duration="175.40" routeLength="1995.06" waitingTime="12.50" waitingCount="1" stopTime="0.00" timeLoss="22.01" rerouteNo="1" devices="tripinfo_EW.cav.1 routing_EW.cav.1" vType="cav" speedFactor="0.83" vaporized=""/>
    <tripinfo id="WE.cav.10" depart="49.80" departLane="E0_1" departPos="5.10" departSpeed="15.36" departDelay="0.00" arrival="190.50" arrivalLane="E2_0" arrivalPos="983.96" arrivalSpeed="15.19" duration="140.70" routeLength="1995.09" waitingTime="0.00" waitingCount="0" stopTime="0.00" timeLoss="10.79" rerouteNo="1" devices="tripinfo_WE.cav.10 routing_WE.cav.10" vType="cav" speedFactor="0.98" vaporized=""/>
    <tripinfo id="NS.cav.17" depart="48.40" departLane="E1_2" departPos="5.10" departSpeed="22.13" departDelay="0.00" arrival="191.70" arrivalLane="E3_0" arrivalPos="983.03" arrivalSpeed="22.11" duration="143.30" routeLength="1995.03" waitingTime="40.20" waitingCount="1" stopTime="0.00" timeLoss="53.09" rerouteNo="1" devices="tripinfo_NS.cav.17 routing_NS.cav.17" vType="cav" speedFactor="1.10" vaporized=""/>
    <tripinfo id="SN.cav.11" depart="51.30" departLane="-E3_2" departPos="5.10" departSpeed="20.58" departDelay="0.00" arrival="191.80" arrivalLane="-E1_0" arrivalPos="983.25" arrivalSpeed="20.58" duration="140.50" routeLength="1995.02" waitingTime="33.50" waitingCount="1" stopTime="0.00" timeLoss="43.55" rerouteNo="1" devices="tripinfo_SN.cav.11 routing_SN.cav.11" vType="cav" speedFactor="1.02" vaporized=""/>
    <tripinfo id="NE.cav.1" depart="72.10" departLane="E1_3" departPos="5.10" departSpeed="21.49" departDelay="0.00" arrival="192.50" arrivalLane="E2_0" arrivalPos="983.96" arrivalSpeed="16.65" duration="120.40" routeLength="1996.75" waitingTime="1.10" waitingCount="1" stopTime="0.00" timeLoss="13.31" rerouteNo="1" devices="tripinfo_NE.cav.1 routing_NE.cav.1" vType="cav" speedFactor="1.07" vaporized=""/>
    <tripinfo id="NS.cav.12" depart="36.40" departLane="E1_1" departPos="5.10" departSpeed="20.05" departDelay="0.00" arrival="193.50" arrivalLane="E3_0" arrivalPos="983.03" arrivalSpeed="19.78" duration="157.10" routeLength="1995.03" waitingTime="44.20" waitingCount="1" stopTime="0.00" timeLoss="57.54" rerouteNo="1" devices="tripinfo_NS.cav.12 routing_NS.cav.12" vType="cav" speedFactor="1.00" vaporized=""/>
    <tripinfo id="SW.cav.1" depart="17.30" departLane="-E3_3" departPos="5.10" departSpeed="20.16" departDelay="0.00" arrival="194.90" arrivalLane="-E0_0" arrivalPos="983.27" arrivalSpeed="15.66" duration="177.60" routeLength="1995.46" waitingTime="52.60" waitingCount="1" stopTime="0.00" timeLoss="63.54" rerouteNo="1" devices="tripinfo_SW.cav.1 routing_SW.cav.1" vType="cav" speedFactor="1.00" vaporized=""/>
    <tripinfo id="SW.cav.2" depart="20.60" departLane="-E3_3" departPos="5.10" departSpeed="21.35" departDelay="0.00" arrival="195.20" arrivalLane="-E0_1" arrivalPos="983.27" arrivalSpeed="16.60" duration="174.60" routeLength="1995.46" waitingTime="51.50" waitingCount="1" stopTime="0.00" timeLoss="66.88" rerouteNo="1" devices="tripinfo_SW.cav.2 routing_SW.cav.2" vType="cav" speedFactor="1.06" vaporized=""/>
    <tripinfo id="WE.cav.4" depart="23.00" departLane="E0_0" departPos="5.10" departSpeed="13.27" departDelay="0.00" arrival="195.80" arrivalLane="E2_0" arrivalPos="983.96" arrivalSpeed="13.27" duration="172.80" routeLength="1995.09" waitingTime="10.30" waitingCount="1" stopTime="0.00" timeLoss="22.46" rerouteNo="1" devices="tripinfo_WE.cav.4 routing_WE.cav.4" vType="cav" speedFactor="0.85" vaporized=""/>
    <tripinfo id="SE.cav.9" depart="89.80" departLane="-E3_0" departPos="5.10" departSpeed="23.37" departDelay="0.00" arrival="196.20" arrivalLane="E2_1" arrivalPos="983.96" arrivalSpeed="18.11" duration="106.40" routeLength="1971.03" waitingTime="0.00" waitingCount="0" stopTime="0.00" timeLoss="9.13" rerouteNo="1" devices="tripinfo_SE.cav.9 routing_SE.cav.9" vType="cav" speedFactor="1.16" vaporized=""/>