<?xml version="1.0" encoding="UTF-8"?>

<!-- generated on 2022-06-30 13:43:08 by Eclipse SUMO GUI Version 1.13.0
<configuration xmlns:xsi="http://www.w3.org/2001/XMLSchema-instance" xsi:noNamespaceSchemaLocation="http://sumo.dlr.de/xsd/sumoConfiguration.xsd">

    <input>
        <net-file value="data/Eastway-Central.net.xml"/>
        <route-files value="data/Eastway-Central.rou.xml"/>
        <additional-files value="data/Eastway-Central.add.xml"/>
    </input>

    <output>
        <tripinfo-output value="tripinfo.xml"/>
    </output>

    <time>
        <step-length value="0.1"/>
    </time>

    <report>
        <verbose value="true"/>
        <log value="logfile.xml"/>
        <duration-log.statistics value="true"/>
    </report>

    <traci_server>
        <remote-port value="60633"/>
    </traci_server>

    <gui_only>
        <tracker-interval value="0.1"/>
    </gui_only>

</configuration>
-->

<tripinfos xmlns:xsi="http://www.w3.org/2001/XMLSchema-instance" xsi:noNamespaceSchemaLocation="http://sumo.dlr.de/xsd/tripinfo_file.xsd">
    <tripinfo id="NS.0" depart="3.00" departLane="E1_2" departPos="5.10" departSpeed="21.78" departDelay="0.00" arrival="94.60" arrivalLane="E3_0" arrivalPos="983.03" arrivalSpeed="21.78" duration="91.60" routeLength="1995.03" waitingTime="0.00" waitingCount="0" stopTime="0.00" timeLoss="0.00" rerouteNo="1" devices="tripinfo_NS.0 routing_NS.0" vType="car" speedFactor="1.08" vaporized=""/>
    <tripinfo id="BNS.0" depart="0.00" departLane="E1_1" departPos="12.10" departSpeed="20.12" departDelay="0.00" arrival="99.70" arrivalLane="E3_0" arrivalPos="983.03" arrivalSpeed="20.08" duration="99.70" routeLength="1988.03" waitingTime="0.00" waitingCount="0" stopTime="0.00" timeLoss="0.90" rerouteNo="1" devices="tripinfo_BNS.0 routing_BNS.0" vType="bus" speedFactor="1.00" vaporized=""/>
    <tripinfo id="SN.0" depart="12.60" departLane="-E3_1" departPos="5.10" departSpeed="22.59" departDelay="0.00" arrival="105.20" arrivalLane="-E1_0" arrivalPos="983.25" arrivalSpeed="22.59" duration="92.60" routeLength="1995.02" waitingTime="0.00" waitingCount="0" stopTime="0.00" timeLoss="4.26" rerouteNo="1" devices="tripinfo_SN.0 routing_SN.0" vType="car" speedFactor="1.12" vaporized=""/>
    <tripinfo id="NS.3" depart="10.30" departLane="E1_1" departPos="5.10" departSpeed="21.94" departDelay="0.00" arrival="106.70" arrivalLane="E3_1" arrivalPos="983.03" arrivalSpeed="21.94" duration="96.40" routeLength="1995.03" waitingTime="0.00" waitingCount="0" stopTime="0.00" timeLoss="5.49" rerouteNo="1" devices="tripinfo_NS.3 routing_NS.3" vType="car" speedFactor="1.09" vaporized=""/>
    <tripinfo id="NS.4" depart="11.70" departLane="E1_2" departPos="5.10" departSpeed="21.07" departDelay="0.00" arrival="107.20" arrivalLane="E3_0" arrivalPos="983.03" arrivalSpeed="21.06" duration="95.50" routeLength="1995.03" waitingTime="0.00" waitingCount="0" stopTime="0.00" timeLoss="0.72" rerouteNo="1" devices="tripinfo_NS.4 routing_NS.4" vType="car" speedFactor="1.05" vaporized=""/>
    <tripinfo id="SE.0" depart="6.60" departLane="-E3_0" departPos="5.10" departSpeed="20.73" departDelay="0.00" arrival="120.80" arrivalLane="E2_0" arrivalPos="983.96" arrivalSpeed="16.12" duration="114.20" routeLength="1971.03" waitingTime="0.00" waitingCount="0" stopTime="0.00" timeLoss="4.56" rerouteNo="1" devices="tripinfo_SE.0 routing_SE.0" vType="car" speedFactor="1.03" vaporized=""/>
    <tripinfo id="WS.0" depart="1.20" departLane="E0_0" departPos="5.10" departSpeed="14.68" departDelay="0.00" arrival="128.10" arrivalLane="E3_0" arrivalPos="983.03" arrivalSpeed="18.88" duration="126.90" routeLength="1974.35" waitingTime="0.00" waitingCount="0" stopTime="0.00" timeLoss="6.41" rerouteNo="1" devices="tripinfo_WS.0 routing_WS.0" vType="car" speedFactor="0.94" vaporized=""/>
    <tripinfo id="WE.0" depart="0.00" departLane="E0_0" departPos="5.10" departSpeed="16.59" departDelay="0.00" arrival="129.30" arrivalLane="E2_0" arrivalPos="983.96" arrivalSpeed="16.59" duration="129.30" routeLength="1995.09" waitingTime="0.90" waitingCount="1" stopTime="0.00" timeLoss="8.97" rerouteNo="1" devices="tripinfo_WE.0 routing_WE.0" vType="car" speedFactor="1.06" vaporized=""/>
    <tripinfo id="WE.1" depart="2.20" departLane="E0_1" departPos="5.10" departSpeed="15.81" departDelay="0.00" arrival="130.40" arrivalLane="E2_0" arrivalPos="983.96" arrivalSpeed="15.81" duration="128.20" routeLength="1995.09" waitingTime="0.00" waitingCount="0" stopTime="0.00" timeLoss="2.03" rerouteNo="1" devices="tripinfo_WE.1 routing_WE.1" vType="car" speedFactor="1.01" vaporized=""/>
    <tripinfo id="NW.0" depart="18.00" departLane="E1_0" departPos="5.10" departSpeed="23.30" departDelay="0.00" arrival="130.70" arrivalLane="-E0_0" arrivalPos="983.27" arrivalSpeed="18.13" duration="112.70" routeLength="1970.87" waitingTime="0.00" waitingCount="0" stopTime="0.00" timeLoss="15.21" rerouteNo="1" devices="tripinfo_NW.0 routing_NW.0" vType="car" speedFactor="1.16" vaporized=""/>
    <tripinfo id="SE.1" depart="17.30" departLane="-E3_0" departPos="5.10" departSpeed="18.84" departDelay="0.00" arrival="142.30" arrivalLane="E2_0" arrivalPos="983.96" arrivalSpeed="14.65" duration="125.00" routeLength="1971.03" waitingTime="0.00" waitingCount="0" stopTime="0.00" timeLoss="4.37" rerouteNo="1" devices="tripinfo_SE.1 routing_SE.1" vType="car" speedFactor="0.94" vaporized=""/>
    <tripinfo id="ES.0" depart="33.50" departLane="-E2_2" departPos="5.10" departSpeed="16.13" departDelay="0.00" arrival="149.10" arrivalLane="E3_0" arrivalPos="983.03" arrivalSpeed="20.73" duration="115.60" routeLength="1995.50" waitingTime="0.00" waitingCount="0" stopTime="0.00" timeLoss="4.73" rerouteNo="1" devices="tripinfo_ES.0 routing_ES.0" vType="car" speedFactor="1.03" vaporized=""/>
    <tripinfo id="SE.2" depart="26.60" departLane="-E3_0" departPos="5.10" departSpeed="22.77" departDelay="0.00" arrival="149.60" arrivalLane="E2_0" arrivalPos="983.96" arrivalSpeed="17.71" duration="123.00" routeLength="1971.03" waitingTime="1.40" waitingCount="1" stopTime="0.00" timeLoss="23.23" rerouteNo="1" devices="tripinfo_SE.2 routing_SE.2" vType="car" speedFactor="1.13" vaporized=""/>
    <tripinfo id="EW.0" depart="6.80" departLane="-E2_0" departPos="5.10" departSpeed="16.37" departDelay="0.00" arrival="149.70" arrivalLane="-E0_0" arrivalPos="983.27" arrivalSpeed="16.37" duration="142.90" routeLength="1995.06" waitingTime="13.10" waitingCount="1" stopTime="0.00" timeLoss="20.98" rerouteNo="1" devices="tripinfo_EW.0 routing_EW.0" vType="car" speedFactor="1.05" vaporized=""/>
    <tripinfo id="EW.1" depart="11.00" departLane="-E2_1" departPos="5.10" departSpeed="16.06" departDelay="0.00" arrival="150.80" arrivalLane="-E0_0" arrivalPos="983.27" arrivalSpeed="16.06" duration="139.80" routeLength="1995.06" waitingTime="7.00" waitingCount="1" stopTime="0.00" timeLoss="15.55" rerouteNo="1" devices="tripinfo_EW.1 routing_EW.1" vType="car" speedFactor="1.03" vaporized=""/>
    <tripinfo id="WE.6" depart="27.20" departLane="E0_0" departPos="5.10" departSpeed="18.45" departDelay="0.00" arrival="151.80" arrivalLane="E2_1" arrivalPos="983.96" arrivalSpeed="18.45" duration="124.60" routeLength="1995.09" waitingTime="0.00" waitingCount="0" stopTime="0.00" timeLoss="16.38" rerouteNo="1" devices="tripinfo_WE.6 routing_WE.6" vType="car" speedFactor="1.18" vaporized=""/>
    <tripinfo id="ES.2" depart="37.20" departLane="-E2_2" departPos="5.10" departSpeed="16.24" departDelay="0.00" arrival="154.20" arrivalLane="E3_0" arrivalPos="983.03" arrivalSpeed="20.86" duration="117.00" routeLength="1991.17" waitingTime="0.00" waitingCount="0" stopTime="0.00" timeLoss="7.07" rerouteNo="1" devices="tripinfo_ES.2 routing_ES.2" vType="car" speedFactor="1.04" vaporized=""/>
    <tripinfo id="EW.3" depart="20.30" departLane="-E2_1" departPos="5.10" departSpeed="15.93" departDelay="0.00" arrival="155.30" arrivalLane="-E0_1" arrivalPos="983.27" arrivalSpeed="15.93" duration="135.00" routeLength="1995.06" waitingTime="0.00" waitingCount="0" stopTime="0.00" timeLoss="9.70" rerouteNo="1" devices="tripinfo_EW.3 routing_EW.3" vType="car" speedFactor="1.02" vaporized=""/>
    <tripinfo id="EW.2" depart="13.90" departLane="-E2_0" departPos="5.10" departSpeed="15.51" departDelay="0.00" arrival="156.20" arrivalLane="-E0_0" arrivalPos="983.27" arrivalSpeed="15.51" duration="142.30" routeLength="1995.06" waitingTime="2.60" waitingCount="1" stopTime="0.00" timeLoss="13.64" rerouteNo="1" devices="tripinfo_EW.2 routing_EW.2" vType="car" speedFactor="0.99" vaporized=""/>
    <tripinfo id="ES.1" depart="33.70" departLane="-E2_3" departPos="5.10" departSpeed="14.98" departDelay="0.00" arrival="156.80" arrivalLane="E3_0" arrivalPos="983.03" arrivalSpeed="19.09" duration="123.10" routeLength="1995.50" waitingTime="0.00" waitingCount="0" stopTime="0.00" timeLoss="3.70" rerouteNo="1" devices="tripinfo_ES.1 routing_ES.1" vType="car" speedFactor="0.96" vaporized=""/>
    <tripinfo id="EW.4" depart="22.30" departLane="-E2_0" departPos="5.10" departSpeed="15.81" departDelay="0.00" arrival="159.50" arrivalLane="-E0_0" arrivalPos="983.27" arrivalSpeed="15.75" duration="137.20" routeLength="1995.06" waitingTime="0.00" waitingCount="0" stopTime="0.00" timeLoss="10.98" rerouteNo="1" devices="tripinfo_EW.4 routing_EW.4" vType="car" speedFactor="1.01" vaporized=""/>
    <tripinfo id="WE.2" depart="6.60" departLane="E0_0" departPos="5.10" departSpeed="13.01" departDelay="0.00" arrival="160.40" arrivalLane="E2_0" arrivalPos="983.96" arrivalSpeed="13.01" duration="153.80" routeLength="1995.09" waitingTime="0.00" waitingCount="0" stopTime="0.00" timeLoss="0.36" rerouteNo="1" devices="tripinfo_WE.2 routing_WE.2" vType="car" speedFactor="0.83" vaporized=""/>
    <tripinfo id="SE.4" depart="35.30" departLane="-E3_0" departPos="5.10" departSpeed="21.97" departDelay="0.00" arrival="161.20" arrivalLane="E2_1" arrivalPos="983.96" arrivalSpeed="17.09" duration="125.90" routeLength="1971.03" waitingTime="0.00" waitingCount="0" stopTime="0.00" timeLoss="22.45" rerouteNo="1" devices="tripinfo_SE.4 routing_SE.4" vType="car" speedFactor="1.09" vaporized=""/>
    <tripinfo id="WE.3" depart="14.60" departLane="E0_1" departPos="5.10" departSpeed="14.50" departDelay="0.00" arrival="162.70" arrivalLane="E2_0" arrivalPos="983.96" arrivalSpeed="14.19" duration="148.10" routeLength="1995.09" waitingTime="0.00" waitingCount="0" stopTime="0.00" timeLoss="10.48" rerouteNo="1" devices="tripinfo_WE.3 routing_WE.3" vType="car" speedFactor="0.93" vaporized=""/>
    <tripinfo id="SE.3" depart="30.30" departLane="-E3_0" departPos="5.10" departSpeed="19.58" departDelay="0.00" arrival="164.70" arrivalLane="E2_0" arrivalPos="983.96" arrivalSpeed="14.70" duration="134.40" routeLength="1971.03" waitingTime="0.00" waitingCount="0" stopTime="0.00" timeLoss="18.39" rerouteNo="1" devices="tripinfo_SE.3 routing_SE.3" vType="car" speedFactor="0.97" vaporized=""/>
    <tripinfo id="WS.1" depart="47.90" departLane="E0_0" departPos="5.10" departSpeed="15.91" departDelay="0.00" arrival="171.70" arrivalLane="E3_0" arrivalPos="983.03" arrivalSpeed="20.46" duration="123.80" routeLength="1974.35" waitingTime="1.40" waitingCount="1" stopTime="0.00" timeLoss="12.63" rerouteNo="1" devices="tripinfo_WS.1 routing_WS.1" vType="car" speedFactor="1.02" vaporized=""/>
    <tripinfo id="NW.1" depart="42.70" departLane="E1_0" departPos="5.10" departSpeed="18.12" departDelay="0.00" arrival="172.30" arrivalLane="-E0_0" arrivalPos="983.27" arrivalSpeed="14.09" duration="129.60" routeLength="1970.87" waitingTime="0.00" waitingCount="0" stopTime="0.00" timeLoss="4.23" rerouteNo="1" devices="tripinfo_NW.1 routing_NW.1" vType="car" speedFactor="0.90" vaporized=""/>
    <tripinfo id="WE.8" depart="39.10" departLane="E0_1" departPos="5.10" departSpeed="16.33" departDelay="0.00" arrival="179.00" arrivalLane="E2_0" arrivalPos="983.96" arrivalSpeed="16.33" duration="139.90" routeLength="1995.09" waitingTime="9.40" waitingCount="1" stopTime="0.00" timeLoss="17.73" rerouteNo="1" devices="tripinfo_WE.8 routing_WE.8" vType="car" speedFactor="1.04" vaporized=""/>
    <tripinfo id="NS.1" depart="6.90" departLane="E1_1" departPos="5.10" departSpeed="17.83" departDelay="0.00" arrival="182.80" arrivalLane="E3_0" arrivalPos="983.03" arrivalSpeed="17.24" duration="175.90" routeLength="1995.03" waitingTime="54.00" waitingCount="1" stopTime="0.00" timeLoss="63.99" rerouteNo="1" devices="tripinfo_NS.1 routing_NS.1" vType="car" speedFactor="0.89" vaporized=""/>
    <tripinfo id="NS.2" depart="8.90" departLane="E1_2" departPos="5.10" departSpeed="17.24" departDelay="0.00" arrival="182.80" arrivalLane="E3_1" arrivalPos="983.03" arrivalSpeed="17.24" duration="173.90" routeLength="1995.03" waitingTime="49.00" waitingCount="1" stopTime="0.00" timeLoss="58.11" rerouteNo="1" devices="tripinfo_NS.2 routing_NS.2" vType="car" speedFactor="0.86" vaporized=""/>
    <tripinfo id="SN.4" depart="28.60" departLane="-E3_2" departPos="5.10" departSpeed="23.25" departDelay="0.00" arrival="183.30" arrivalLane="-E1_0" arrivalPos="983.25" arrivalSpeed="23.58" duration="154.70" routeLength="1995.02" waitingTime="55.70" waitingCount="1" stopTime="0.00" timeLoss="70.02" rerouteNo="1" devices="tripinfo_SN.4 routing_SN.4" vType="car" speedFactor="1.17" vaporized=""/>
    <tripinfo id="NS.5" depart="16.40" departLane="E1_1" departPos="5.10" departSpeed="18.94" departDelay="0.00" arrival="185.00" arrivalLane="E3_1" arrivalPos="983.03" arrivalSpeed="18.40" duration="168.60" routeLength="1995.03" waitingTime="47.30" waitingCount="1" stopTime="0.00" timeLoss="63.24" rerouteNo="1" devices="tripinfo_NS.5 routing_NS.5" vType="car" speedFactor="0.94" vaporized=""/>
    <tripinfo id="NS.6" depart="23.60" departLane="E1_2" departPos="5.10" departSpeed="17.90" departDelay="0.00" arrival="185.90" arrivalLane="E3_0" arrivalPos="983.03" arrivalSpeed="17.77" duration="162.30" routeLength="1995.03" waitingTime="37.90" waitingCount="1" stopTime="0.00" timeLoss="50.78" rerouteNo="1" devices="tripinfo_NS.6 routing_NS.6" vType="car" speedFactor="0.89" vaporized=""/>
    <tripinfo id="NS.8" depart="29.30" departLane="E1_2" departPos="5.10" departSpeed="20.52" departDelay="0.00" arrival="186.90" arrivalLane="E3_0" arrivalPos="983.03" arrivalSpeed="19.25" duration="157.60" routeLength="1995.03" waitingTime="40.20" waitingCount="1" stopTime="0.00" timeLoss="60.27" rerouteNo="1" devices="tripinfo_NS.8 routing_NS.8" vType="car" speedFactor="1.02" vaporized=""/>
    <tripinfo id="NS.7" depart="27.10" departLane="E1_1" departPos="5.10" departSpeed="18.74" departDelay="0.00" arrival="188.30" arrivalLane="E3_0" arrivalPos="983.03" arrivalSpeed="17.69" duration="161.20" routeLength="1995.03" waitingTime="36.70" waitingCount="1" stopTime="0.00" timeLoss="54.69" rerouteNo="1" devices="tripinfo_NS.7 routing_NS.7" vType="car" speedFactor="0.93" vaporized=""/>
    <tripinfo id="NS.9" depart="31.80" departLane="E1_1" departPos="5.10" departSpeed="22.18" departDelay="0.00" arrival="188.40" arrivalLane="E3_1" arrivalPos="983.03" arrivalSpeed="20.42" duration="156.60" routeLength="1995.03" waitingTime="39.20" waitingCount="1" stopTime="0.00" timeLoss="66.63" rerouteNo="1" devices="tripinfo_NS.9 routing_NS.9" vType="car" speedFactor="1.10" vaporized=""/>
    <tripinfo id="NS.10" depart="41.40" departLane="E1_1" departPos="5.10" departSpeed="20.07" departDelay="0.00" arrival="190.50" arrivalLane="E3_1" arrivalPos="983.03" arrivalSpeed="19.35" duration="149.10" routeLength="1995.03" waitingTime="29.60" waitingCount="1" stopTime="0.00" timeLoss="49.61" rerouteNo="1" devices="tripinfo_NS.10 routing_NS.10" vType="car" speedFactor="1.00" vaporized=""/>
    <tripinfo id="WE.7" depart="32.50" departLane="E0_1" departPos="5.10" departSpeed="14.09" departDelay="0.00" arrival="190.70" arrivalLane="E2_1" arrivalPos="983.96" arrivalSpeed="14.09" duration="158.20" routeLength="1995.09" waitingTime="6.50" waitingCount="1" stopTime="0.00" timeLoss="16.59" rerouteNo="1" devices="tripinfo_WE.7 routing_WE.7" vType="car" speedFactor="0.90" vaporized=""/>
    <tripinfo id="WE.5" depart="25.10" departLane="E0_1" departPos="5.10" departSpeed="13.66" departDelay="0.00" arrival="191.20" arrivalLane="E2_0" arrivalPos="983.96" arrivalSpeed="13.66" duration="166.10" routeLength="1995.09" waitingTime="12.30" waitingCount="1" stopTime="0.00" timeLoss="19.98" rerouteNo="1" devices="tripinfo_WE.5 routing_WE.5" vType="car" speedFactor="0.87" vaporized=""/>
    <tripinfo id="NS.11" depart="44.80" departLane="E1_2" departPos="5.10" departSpeed="17.64" departDelay="0.00" arrival="191.30" arrivalLane="E3_0" arrivalPos="983.03" arrivalSpeed="17.51" duration="146.50" routeLength="1995.03" waitingTime="18.00" waitingCount="1" stopTime="0.00" timeLoss="33.39" rerouteNo="1" devices="tripinfo_NS.11 routing_NS.11" vType="car" speedFactor="0.88" vaporized=""/>
    <tripinfo id="SN.3" depart="28.20" departLane="-E3_1" departPos="5.10" departSpeed="20.22" departDelay="0.00" arrival="192.20" arrivalLane="-E1_1" arrivalPos="983.25" arrivalSpeed="20.22" duration="164.00" routeLength="1995.02" waitingTime="50.20" waitingCount="1" stopTime="0.00" timeLoss="65.28" rerouteNo="1" devices="tripinfo_SN.3 routing_SN.3" vType="car" speedFactor="1.01" vaporized=""/>
    <tripinfo id="NS.13" depart="48.10" departLane="E1_2" departPos="5.10" departSpeed="22.05" departDelay="0.00" arrival="192.20" arrivalLane="E3_1" arrivalPos="983.03" arrivalSpeed="20.08" duration="144.10" routeLength="1995.03" waitingTime="28.10" waitingCount="1" stopTime="0.00" timeLoss="53.54" rerouteNo="1" devices="tripinfo_NS.13 routing_NS.13" vType="car" speedFactor="1.10" vaporized=""/>
    <tripinfo id="NE.0" depart="31.00" departLane="E1_3" departPos="5.10" departSpeed="23.74" departDelay="0.00" arrival="192.30" arrivalLane="E2_1" arrivalPos="983.96" arrivalSpeed="16.31" duration="161.30" routeLength="1996.75" waitingTime="42.70" waitingCount="1" stopTime="0.00" timeLoss="64.40" rerouteNo="1" devices="tripinfo_NE.0 routing_NE.0" vType="car" speedFactor="1.18" vaporized=""/>
    <tripinfo id="SN.2" depart="26.40" departLane="-E3_2" departPos="5.10" departSpeed="19.09" departDelay="0.00" arrival="192.80" arrivalLane="-E1_0" arrivalPos="983.25" arrivalSpeed="19.09" duration="166.40" routeLength="1995.02" waitingTime="52.50" waitingCount="1" stopTime="0.00" timeLoss="61.82" rerouteNo="1" devices="tripinfo_SN.2 routing_SN.2" vType="car" speedFactor="0.95" vaporized=""/>
    <tripinfo id="NS.14" depart="48.40" departLane="E1_1" departPos="5.10" departSpeed="19.79" departDelay="0.00" arrival="194.20" arrivalLane="E3_1" arrivalPos="983.03" arrivalSpeed="19.35" duration="145.80" routeLength="1995.03" waitingTime="23.50" waitingCount="1" stopTime="0.00" timeLoss="46.88" rerouteNo="1" devices="tripinfo_NS.14 routing_NS.14" vType="car" speedFactor="1.00" vaporized=""/>
    <tripinfo id="NS.12" depart="46.60" departLane="E1_1" departPos="5.10" departSpeed="17.11" departDelay="0.00" arrival="194.70" arrivalLane="E3_0" arrivalPos="983.03" arrivalSpeed="17.05" duration="148.10" routeLength="1995.03" waitingTime="15.30" waitingCount="1" stopTime="0.00" timeLoss="31.46" rerouteNo="1" devices="tripinfo_NS.12 routing_NS.12" vType="car" speedFactor="0.85" vaporized=""/>
    <tripinfo id="NS.18" depart="69.40" departLane="E1_1" departPos="5.10" departSpeed="20.77" departDelay="0.00" arrival="196.00" arrivalLane="E3_1" arrivalPos="983.03" arrivalSpeed="19.53" duration="126.60" routeLength="1995.03" waitingTime="5.70" waitingCount="1" stopTime="0.00" timeLoss="30.54" rerouteNo="1" devices="tripinfo_NS.18 routing_NS.18" vType="car" speedFactor="1.03" vaporized=""/>
    <tripinfo id="SN.5" depart="28.70" departLane="-E3_1" departPos="5.10" departSpeed="13.60" departDelay="0.00" arrival="196.10" arrivalLane="-E1_0" arrivalPos="983.25" arrivalSpeed="19.96" duration="167.40" routeLength="1995.02" waitingTime="49.20" waitingCount="1" stopTime="0.00" timeLoss="67.68" rerouteNo="1" devices="tripinfo_SN.5 routing_SN.5" vType="car" speedFactor="0.99" vaporized=""/>
    <tripinfo id="NS.16" depart="54.10" departLane="E1_1" departPos="5.10" departSpeed="22.52" departDelay="0.00" arrival="196.30" arrivalLane="E3_0" arrivalPos="983.03" arrivalSpeed="19.27" duration="142.20" routeLength="1995.03" waitingTime="14.60" waitingCount="1" stopTime="0.00" timeLoss="53.54" rerouteNo="1" devices="tripinfo_NS.16 routing_NS.16" vType="car" speedFactor="1.12" vaporized=""/>
    <tripinfo id="SN.1" depart="25.80" departLane="-E3_1" departPos="5.10" departSpeed="18.45" departDelay="0.00" arrival="197.80" arrivalLane="-E1_0" arrivalPos="983.25" arrivalSpeed="17.86" duration="172.00" routeLength="1995.02" waitingTime="50.70" waitingCount="1" stopTime="0.00" timeLoss="63.86" rerouteNo="1" devices="tripinfo_SN.1 routing_SN.1" vType="car" speedFactor="0.92" vaporized=""/>
    <tripinfo id="NE.1" depart="61.00" departLane="E1_3" departPos="5.10" departSpeed="18.40" departDelay="0.00" arrival="197.80" arrivalLane="E2_1" arrivalPos="983.96" arrivalSpeed="14.31" duration="136.80" routeLength="1996.75" waitingTime="2.10" waitingCount="1" stopTime="0.00" timeLoss="11.78" rerouteNo="1" devices="tripinfo_NE.1 routing_NE.1" vType="car" speedFactor="0.91" vaporized=""/>
    <tripinfo id="NS.15" depart="53.80" departLane="E1_2" departPos="5.10" departSpeed="21.78" departDelay="0.00" arrival="197.90" arrivalLane="E3_0" arrivalPos="983.03" arrivalSpeed="19.39" duration="144.10" routeLength="1995.03" waitingTime="16.70" waitingCount="2" stopTime="0.00" timeLoss="52.47" rerouteNo="1" devices="tripinfo_NS.15 routing_NS.15" vType="car" speedFactor="1.08" vaporized=""/>
    <tripinfo id="NS.19" depart="73.90" departLane="E1_2" departPos="5.10" departSpeed="20.81" departDelay="0.00" arrival="197.90" arrivalLane="E3_1" arrivalPos="983.03" arrivalSpeed="19.61" duration="124.00" routeLength="1995.03" waitingTime="3.30" waitingCount="1" stopTime="0.00" timeLoss="28.08" rerouteNo="1" devices="tripinfo_NS.19 routing_NS.19" vType="car" speedFactor="1.03" vaporized=""/>
    <tripinfo id="WE.4" depart="23.90" departLane="E0_0" departPos="5.10" departSpeed="12.92" departDelay="0.00" arrival="198.40" arrivalLane="E2_0" arrivalPos="983.96" arrivalSpeed="12.92" duration="174.50" routeLength="1995.09" waitingTime="9.50" waitingCount="1" stopTime="0.00" timeLoss="20.02" rerouteNo="1" devices="tripinfo_WE.4 routing_WE.4" vType="car" speedFactor="0.83" vaporized=""/>
    <tripinfo id="SN.8" depart="50.30" departLane="-E3_1" departPos="5.10" departSpeed="20.04" departDelay="0.00" arrival="199.10" arrivalLane="-E1_1" arrivalPos="983.25" arrivalSpeed="20.00" duration="148.80" routeLength="1995.02" waitingTime="32.80" waitingCount="1" stopTime="0.00" timeLoss="49.18" rerouteNo="1" devices="tripinfo_SN.8 routing_SN.8" vType="car" speedFactor="1.00" vaporized=""/>
    <tripinfo id="NS.17" depart="67.10" departLane="E1_1" departPos="5.10" departSpeed="21.24" departDelay="0.00" arrival="199.60" arrivalLane="E3_0" arrivalPos="983.03" arrivalSpeed="19.36" duration="132.50" routeLength="1995.03" waitingTime="8.30" waitingCount="1" stopTime="0.00" timeLoss="38.56" rerouteNo="1" devices="tripinfo_NS.17 routing_NS.17" vType="car" speedFactor="1.06" vaporized=""/>
    <tripinfo id="SN.6" depart="40.30" departLane="-E3_2" departPos="5.10" departSpeed="21.89" departDelay="0.00" arrival="199.70" arrivalLane="-E1_0" arrivalPos="983.25" arrivalSpeed="18.13" duration="159.40" routeLength="1995.02" waitingTime="42.40" waitingCount="2" stopTime="0.00" timeLoss="68.22" rerouteNo="1" devices="tripinfo_SN.6 routing_SN.6" vType="car" speedFactor="1.09" vaporized=""/>
    <tripinfo id="NS.21" depart="77.60" departLane="E1_2" departPos="5.10" departSpeed="19.64" departDelay="0.00" arrival="200.00" arrivalLane="E3_1" arrivalPos="983.03" arrivalSpeed="19.01" duration="122.40" routeLength="1995.03" waitingTime="0.00" waitingCount="0" stopTime="0.00" timeLoss="20.74" rerouteNo="1" devices="tripinfo_NS.21 routing_NS.21" vType="car" speedFactor="0.98" vaporized=""/>
    <tripinfo id="SE.5" depart="56.20" departLane="-E3_0" departPos="5.10" departSpeed="18.86" departDelay="0.00" arrival="200.50" arrivalLane="E2_0" arrivalPos="983.96" arrivalSpeed="14.23" duration="144.30" routeLength="1971.03" waitingTime="1.20" waitingCount="1" stopTime="0.00" timeLoss="23.90" rerouteNo="1" devices="tripinfo_SE.5 routing_SE.5" vType="car" speedFactor="0.94" vaporized=""/>
    <tripinfo id="SE.7" depart="63.70" departLane="-E3_0" departPos="5.10" departSpeed="19.57" departDelay="0.00" arrival="200.60" arrivalLane="E2_1" arrivalPos="983.96" arrivalSpeed="15.09" duration="136.90" routeLength="1971.03" waitingTime="0.00" waitingCount="0" stopTime="0.00" timeLoss="20.85" rerouteNo="1" devices="tripinfo_SE.7 routing_SE.7" vType="car" speedFactor="0.97" vaporized=""/>
    <tripinfo id="SN.7" depart="47.80" departLane="-E3_2" departPos="5.10" departSpeed="23.52" departDelay="0.00" arrival="200.80" arrivalLane="-E1_1" arrivalPos="983.25" arrivalSpeed="21.52" duration="153.00" routeLength="1995.02" waitingTime="30.40" waitingCount="1" stopTime="0.00" timeLoss="68.15" rerouteNo="1" devices="tripinfo_SN.7 routing_SN.7" vType="car" speedFactor="1.17" vaporized=""/>
    <tripinfo id="SN.9" depart="52.20" departLane="-E3_1" departPos="5.10" departSpeed="22.99" departDelay="0.00" arrival="201.30" arrivalLane="-E1_0" arrivalPos="983.25" arrivalSpeed="20.06" duration="149.10" routeLength="1995.02" waitingTime="27.40" waitingCount="1" stopTime="0.00" timeLoss="62.30" rerouteNo="1" devices="tripinfo_SN.9 routing_SN.9" vType="car" speedFactor="1.14" vaporized=""/>
    <tripinfo id="NS.20" depart="74.40" departLane="E1_1" departPos="5.10" departSpeed="20.08" departDelay="0.00" arrival="201.50" arrivalLane="E3_0" arrivalPos="983.03" arrivalSpeed="18.96" duration="127.10" routeLength="1995.03" waitingTime="1.30" waitingCount="1" stopTime="0.00" timeLoss="27.70" rerouteNo="1" devices="tripinfo_NS.20 routing_NS.20" vType="car" speedFactor="1.00" vaporized=""/>
    <tripinfo id="SE.6" depart="57.10" departLane="-E3_0" departPos="5.10" departSpeed="17.06" departDelay="0.00" arrival="202.90" arrivalLane="E2_0" arrivalPos="983.96" arrivalSpeed="13.99" duration="145.80" routeLength="1971.03" waitingTime="0.50" waitingCount="1" stopTime="0.00" timeLoss="21.27" rerouteNo="1" devices="tripinfo_SE.6 routing_SE.6" vType="car" speedFactor="0.91" vaporized=""/>
    <tripinfo id="SN.10" depart="52.80" departLane="-E3_2" departPos="5.10" departSpeed="20.59" departDelay="0.00" arrival="203.30" arrivalLane="-E1_1" arrivalPos="983.25" arrivalSpeed="20.26" duration="150.50" routeLength="1995.02" waitingTime="26.00" waitingCount="1" stopTime="0.00" timeLoss="53.60" rerouteNo="1" devices="tripinfo_SN.10 routing_SN.10" vType="car" speedFactor="1.02" vaporized=""/>
    <tripinfo id="SN.11" depart="54.60" departLane="-E3_1" departPos="5.10" departSpeed="20.44" departDelay="0.00" arrival="203.50" arrivalLane="-E1_0" arrivalPos="983.25" arrivalSpeed="19.75" duration="148.90" routeLength="1995.02" waitingTime="22.90" waitingCount="1" stopTime="0.00" timeLoss="51.22" rerouteNo="1" devices="tripinfo_SN.11 routing_SN.11" vType="car" speedFactor="1.02" vaporized=""/>
    <tripinfo id="SE.8" depart="82.10" departLane="-E3_0" departPos="5.10" departSpeed="20.46" departDelay="0.00" arrival="204.30" arrivalLane="E2_1" arrivalPos="983.96" arrivalSpeed="15.74" duration="122.20" routeLength="1971.03" waitingTime="0.00" waitingCount="0" stopTime="0.00" timeLoss="11.16" rerouteNo="1" devices="tripinfo_SE.8 routing_SE.8" vType="car" speedFactor="1.02" vaporized=""/>
    <tripinfo id="SN.13" depart="62.80" departLane="-E3_1" departPos="5.10" departSpeed="20.58" departDelay="0.00" arrival="205.60" arrivalLane="-E1_0" arrivalPos="983.25" arrivalSpeed="19.85" duration="142.80" routeLength="1995.02" waitingTime="18.40" waitingCount="1" stopTime="0.00" timeLoss="45.80" rerouteNo="1" devices="tripinfo_SN.13 routing_SN.13" vType="car" speedFactor="1.02" vaporized=""/>
    <tripinfo id="SN.12" depart="62.70" departLane="-E3_2" departPos="5.10" departSpeed="20.56" departDelay="0.00" arrival="205.70" arrivalLane="-E1_1" arrivalPos="983.25" arrivalSpeed="20.14" duration="143.00" routeLength="1995.02" waitingTime="24.60" waitingCount="1" stopTime="0.00" timeLoss="45.94" rerouteNo="1" devices="tripinfo_SN.12 routing_SN.12" vType="car" speedFactor="1.02" vaporized=""/>
    <tripinfo id="SN.16" depart="79.20" departLane="-E3_1" departPos="5.10" departSpeed="20.15" departDelay="0.00" arrival="207.80" arrivalLane="-E1_0" arrivalPos="983.25" arrivalSpeed="19.60" duration="128.60" routeLength="1995.02" waitingTime="9.10" waitingCount="1" stopTime="0.00" timeLoss="29.54" rerouteNo="1" devices="tripinfo_SN.16 routing_SN.16" vType="car" speedFactor="1.00" vaporized=""/>
    <tripinfo id="SN.14" depart="69.10" departLane="-E3_2" departPos="5.10" departSpeed="19.82" departDelay="0.00" arrival="208.40" arrivalLane="-E1_1" arrivalPos="983.25" arrivalSpeed="19.58" duration="139.30" routeLength="1995.02" waitingTime="19.70" waitingCount="1" stopTime="0.00" timeLoss="38.56" rerouteNo="1" devices="tripinfo_SN.14 routing_SN.14" vType="car" speedFactor="0.98" vaporized=""/>
    <tripinfo id="SN.17" depart="79.30" departLane="-E3_2" departPos="5.10" departSpeed="20.98" departDelay="0.00" arrival="210.30" arrivalLane="-E1_0" arrivalPos="983.25" arrivalSpeed="19.91" duration="131.00" routeLength="1995.02" waitingTime="8.40" waitingCount="1" stopTime="0.00" timeLoss="35.83" rerouteNo="1" devices="tripinfo_SN.17 routing_SN.17" vType="car" speedFactor="1.04" vaporized=""/>