<?xml version="1.0" encoding="UTF-8"?>

<!-- generated on 2022-05-01 22:15:01 by Eclipse SUMO GUI Version 1.12.0
<configuration xmlns:xsi="http://www.w3.org/2001/XMLSchema-instance" xsi:noNamespaceSchemaLocation="http://sumo.dlr.de/xsd/sumoConfiguration.xsd">

    <input>
        <net-file value="data/tsp.net.xml"/>
        <route-files value="data/tsp100.rou.xml"/>
    </input>

    <output>
        <tripinfo-output value="tripinfo.xml"/>
    </output>

    <time>
        <step-length value="0.1"/>
    </time>

    <report>
        <verbose value="true"/>
        <log value="logfile.xml"/>
        <duration-log.statistics value="true"/>
    </report>

    <traci_server>
        <remote-port value="64706"/>
    </traci_server>

    <gui_only>
        <tracker-interval value="0.1"/>
    </gui_only>

</configuration>
-->

<tripinfos xmlns:xsi="http://www.w3.org/2001/XMLSchema-instance" xsi:noNamespaceSchemaLocation="http://sumo.dlr.de/xsd/tripinfo_file.xsd">
    <tripinfo id="WE.cav.0" depart="6.90" departLane="E0_0" departPos="5.10" departSpeed="13.89" departDelay="0.00" arrival="78.60" arrivalLane="-E1_0" arrivalPos="489.60" arrivalSpeed="13.89" duration="71.70" routeLength="994.90" waitingTime="0.00" waitingCount="0" stopTime="0.00" timeLoss="0.06" rerouteNo="0" devices="tripinfo_WE.cav.0 routing_WE.cav.0" vType="cav" speedFactor="0.94" vaporized=""/>
    <tripinfo id="WE.cav.1" depart="8.60" departLane="E0_2" departPos="5.10" departSpeed="13.89" departDelay="0.00" arrival="81.90" arrivalLane="-E1_0" arrivalPos="489.60" arrivalSpeed="13.87" duration="73.30" routeLength="994.90" waitingTime="0.00" waitingCount="0" stopTime="0.00" timeLoss="1.67" rerouteNo="0" devices="tripinfo_WE.cav.1 routing_WE.cav.1" vType="cav" speedFactor="1.01" vaporized=""/>
    <tripinfo id="NW.cav.0" depart="18.00" departLane="E3_1" departPos="5.10" departSpeed="13.89" departDelay="0.00" arrival="92.90" arrivalLane="-E0_0" arrivalPos="489.60" arrivalSpeed="13.89" duration="74.90" routeLength="979.93" waitingTime="0.00" waitingCount="0" stopTime="0.00" timeLoss="3.46" rerouteNo="0" devices="tripinfo_NW.cav.0 routing_NW.cav.0" vType="cav" speedFactor="0.94" vaporized=""/>
    <tripinfo id="SN.cav.0" depart="35.30" departLane="E2_0" departPos="5.10" departSpeed="13.89" departDelay="0.00" arrival="107.60" arrivalLane="-E3_0" arrivalPos="486.40" arrivalSpeed="13.89" duration="72.30" routeLength="994.90" waitingTime="0.00" waitingCount="0" stopTime="0.00" timeLoss="0.59" rerouteNo="0" devices="tripinfo_SN.cav.0 routing_SN.cav.0" vType="cav" speedFactor="0.93" vaporized=""/>
    <tripinfo id="SE.cav.0" depart="33.70" departLane="E2_1" departPos="5.10" departSpeed="13.89" departDelay="0.00" arrival="107.90" arrivalLane="-E1_0" arrivalPos="489.60" arrivalSpeed="13.89" duration="74.20" routeLength="979.93" waitingTime="0.00" waitingCount="0" stopTime="0.00" timeLoss="2.88" rerouteNo="0" devices="tripinfo_SE.cav.0 routing_SE.cav.0" vType="cav" speedFactor="0.99" vaporized=""/>
    <tripinfo id="SE.cav.1" depart="37.20" departLane="E2_0" departPos="5.10" departSpeed="13.89" departDelay="0.00" arrival="112.90" arrivalLane="-E1_0" arrivalPos="489.60" arrivalSpeed="13.89" duration="75.70" routeLength="979.93" waitingTime="0.00" waitingCount="0" stopTime="0.00" timeLoss="4.15" rerouteNo="0" devices="tripinfo_SE.cav.1 routing_SE.cav.1" vType="cav" speedFactor="0.88" vaporized=""/>
    <tripinfo id="NS.cav.0" depart="8.90" departLane="E3_0" departPos="5.10" departSpeed="13.89" departDelay="0.00" arrival="114.90" arrivalLane="-E2_0" arrivalPos="486.40" arrivalSpeed="13.89" duration="106.00" routeLength="994.90" waitingTime="28.40" waitingCount="1" stopTime="0.00" timeLoss="34.35" rerouteNo="0" devices="tripinfo_NS.cav.0 routing_NS.cav.0" vType="cav" speedFactor="1.08" vaporized=""/>
    <tripinfo id="NW.cav.1" depart="42.70" departLane="E3_1" departPos="5.10" departSpeed="13.89" departDelay="0.00" arrival="116.70" arrivalLane="-E0_0" arrivalPos="489.60" arrivalSpeed="13.89" duration="74.00" routeLength="979.93" waitingTime="0.00" waitingCount="0" stopTime="0.00" timeLoss="2.83" rerouteNo="0" devices="tripinfo_NW.cav.1 routing_NW.cav.1" vType="cav" speedFactor="1.16" vaporized=""/>
    <tripinfo id="NS.cav.1" depart="16.40" departLane="E3_1" departPos="5.10" departSpeed="13.89" departDelay="0.00" arrival="117.90" arrivalLane="-E2_0" arrivalPos="486.40" arrivalSpeed="13.86" duration="101.50" routeLength="994.90" waitingTime="22.30" waitingCount="1" stopTime="0.00" timeLoss="29.84" rerouteNo="0" devices="tripinfo_NS.cav.1 routing_NS.cav.1" vType="cav" speedFactor="0.89" vaporized=""/>
    <tripinfo id="NE.cav.0" depart="31.00" departLane="E3_1" departPos="5.10" departSpeed="13.89" departDelay="0.00" arrival="119.40" arrivalLane="-E1_0" arrivalPos="489.60" arrivalSpeed="13.89" duration="88.40" routeLength="992.89" waitingTime="9.00" waitingCount="1" stopTime="0.00" timeLoss="16.32" rerouteNo="0" devices="tripinfo_NE.cav.0 routing_NE.cav.0" vType="cav" speedFactor="1.05" vaporized=""/>
    <tripinfo id="WN.cav.0" depart="1.20" departLane="E0_0" departPos="5.10" departSpeed="13.89" departDelay="0.00" arrival="140.80" arrivalLane="-E3_0" arrivalPos="486.40" arrivalSpeed="13.89" duration="139.60" routeLength="992.89" waitingTime="61.90" waitingCount="1" stopTime="0.00" timeLoss="67.54" rerouteNo="0" devices="tripinfo_WN.cav.0 routing_WN.cav.0" vType="cav" speedFactor="1.06" vaporized=""/>
    <tripinfo id="ES.cav.0" depart="13.90" departLane="E1_1" departPos="5.10" departSpeed="13.85" departDelay="0.00" arrival="141.30" arrivalLane="-E2_0" arrivalPos="486.40" arrivalSpeed="13.85" duration="127.40" routeLength="992.89" waitingTime="49.10" waitingCount="1" stopTime="0.00" timeLoss="54.60" rerouteNo="0" devices="tripinfo_ES.cav.0 routing_ES.cav.0" vType="cav" speedFactor="0.83" vaporized=""/>
    <tripinfo id="ES.cav.1" depart="62.00" departLane="E1_2" departPos="5.10" departSpeed="13.89" departDelay="0.00" arrival="144.10" arrivalLane="-E2_0" arrivalPos="486.40" arrivalSpeed="13.85" duration="82.10" routeLength="992.89" waitingTime="2.40" waitingCount="1" stopTime="0.00" timeLoss="10.18" rerouteNo="0" devices="tripinfo_ES.cav.1 routing_ES.cav.1" vType="cav" speedFactor="1.13" vaporized=""/>
    <tripinfo id="WN.cav.1" depart="74.50" departLane="E0_2" departPos="5.10" departSpeed="13.89" departDelay="0.00" arrival="148.50" arrivalLane="-E3_0" arrivalPos="486.40" arrivalSpeed="13.89" duration="74.00" routeLength="992.89" waitingTime="0.00" waitingCount="0" stopTime="0.00" timeLoss="1.82" rerouteNo="0" devices="tripinfo_WN.cav.1 routing_WN.cav.1" vType="cav" speedFactor="1.01" vaporized=""/>
    <tripinfo id="EW.cav.0" depart="11.80" departLane="E1_0" departPos="5.10" departSpeed="13.89" departDelay="0.00" arrival="155.70" arrivalLane="-E0_0" arrivalPos="489.60" arrivalSpeed="13.89" duration="143.90" routeLength="994.90" waitingTime="67.00" waitingCount="1" stopTime="0.00" timeLoss="72.22" rerouteNo="0" devices="tripinfo_EW.cav.0 routing_EW.cav.0" vType="cav" speedFactor="1.03" vaporized=""/>
    <tripinfo id="EW.cav.1" depart="14.80" departLane="E1_2" departPos="5.10" departSpeed="13.89" departDelay="0.00" arrival="155.70" arrivalLane="-E0_1" arrivalPos="489.60" arrivalSpeed="13.89" duration="140.90" routeLength="994.90" waitingTime="63.00" waitingCount="1" stopTime="0.00" timeLoss="69.22" rerouteNo="0" devices="tripinfo_EW.cav.1 routing_EW.cav.1" vType="cav" speedFactor="1.05" vaporized=""/>
    <tripinfo id="WE.cav.2" depart="22.80" departLane="E0_1" departPos="5.10" departSpeed="13.89" departDelay="0.00" arrival="155.70" arrivalLane="-E1_0" arrivalPos="489.60" arrivalSpeed="13.89" duration="132.90" routeLength="994.90" waitingTime="55.00" waitingCount="1" stopTime="0.00" timeLoss="61.22" rerouteNo="0" devices="tripinfo_WE.cav.2 routing_WE.cav.2" vType="cav" speedFactor="1.09" vaporized=""/>
    <tripinfo id="WE.cav.3" depart="31.60" departLane="E0_1" departPos="5.10" departSpeed="13.89" departDelay="0.00" arrival="158.30" arrivalLane="-E1_0" arrivalPos="489.60" arrivalSpeed="13.84" duration="126.70" routeLength="994.90" waitingTime="47.70" waitingCount="1" stopTime="0.00" timeLoss="55.00" rerouteNo="0" devices="tripinfo_WE.cav.3 routing_WE.cav.3" vType="cav" speedFactor="1.12" vaporized=""/>
    <tripinfo id="EW.cav.2" depart="22.10" departLane="E1_0" departPos="5.10" departSpeed="13.89" departDelay="0.00" arrival="158.60" arrivalLane="-E0_0" arrivalPos="489.60" arrivalSpeed="13.86" duration="136.50" routeLength="994.90" waitingTime="57.40" waitingCount="1" stopTime="0.00" timeLoss="64.84" rerouteNo="0" devices="tripinfo_EW.cav.2 routing_EW.cav.2" vType="cav" speedFactor="0.86" vaporized=""/>
    <tripinfo id="EW.cav.3" depart="27.90" departLane="E1_1" departPos="5.10" departSpeed="13.89" departDelay="0.00" arrival="158.60" arrivalLane="-E0_1" arrivalPos="489.60" arrivalSpeed="13.86" duration="130.70" routeLength="994.90" waitingTime="51.30" waitingCount="1" stopTime="0.00" timeLoss="59.04" rerouteNo="0" devices="tripinfo_EW.cav.3 routing_EW.cav.3" vType="cav" speedFactor="1.03" vaporized=""/>
    <tripinfo id="WE.cav.5" depart="47.20" departLane="E0_1" departPos="5.10" departSpeed="13.89" departDelay="0.00" arrival="160.50" arrivalLane="-E1_0" arrivalPos="489.60" arrivalSpeed="13.78" duration="113.30" routeLength="994.90" waitingTime="33.30" waitingCount="1" stopTime="0.00" timeLoss="41.58" rerouteNo="0" devices="tripinfo_WE.cav.5 routing_WE.cav.5" vType="cav" speedFactor="1.01" vaporized=""/>
    <tripinfo id="EW.cav.4" depart="46.10" departLane="E1_1" departPos="5.10" departSpeed="13.89" departDelay="0.00" arrival="161.00" arrivalLane="-E0_0" arrivalPos="489.60" arrivalSpeed="13.82" duration="114.90" routeLength="994.90" waitingTime="34.70" waitingCount="1" stopTime="0.00" timeLoss="43.28" rerouteNo="0" devices="tripinfo_EW.cav.4 routing_EW.cav.4" vType="cav" speedFactor="1.02" vaporized=""/>
    <tripinfo id="EW.cav.5" depart="50.20" departLane="E1_2" departPos="5.10" departSpeed="13.89" departDelay="0.00" arrival="161.00" arrivalLane="-E0_1" arrivalPos="489.60" arrivalSpeed="13.82" duration="110.80" routeLength="994.90" waitingTime="30.40" waitingCount="1" stopTime="0.00" timeLoss="39.18" rerouteNo="0" devices="tripinfo_EW.cav.5 routing_EW.cav.5" vType="cav" speedFactor="0.98" vaporized=""/>
    <tripinfo id="WE.cav.8" depart="55.60" departLane="E0_2" departPos="5.10" departSpeed="13.89" departDelay="0.00" arrival="162.10" arrivalLane="-E1_1" arrivalPos="489.60" arrivalSpeed="13.89" duration="106.50" routeLength="994.90" waitingTime="26.60" waitingCount="1" stopTime="0.00" timeLoss="34.85" rerouteNo="0" devices="tripinfo_WE.cav.8 routing_WE.cav.8" vType="cav" speedFactor="0.92" vaporized=""/>
    <tripinfo id="EW.cav.6" depart="73.70" departLane="E1_1" departPos="5.10" departSpeed="13.89" departDelay="0.00" arrival="163.30" arrivalLane="-E0_0" arrivalPos="489.60" arrivalSpeed="13.79" duration="89.60" routeLength="994.90" waitingTime="8.40" waitingCount="1" stopTime="0.00" timeLoss="17.89" rerouteNo="0" devices="tripinfo_EW.cav.6 routing_EW.cav.6" vType="cav" speedFactor="1.15" vaporized=""/>
    <tripinfo id="EW.cav.7" depart="75.60" departLane="E1_2" departPos="5.10" departSpeed="13.89" departDelay="0.00" arrival="163.30" arrivalLane="-E0_1" arrivalPos="489.60" arrivalSpeed="13.79" duration="87.70" routeLength="994.90" waitingTime="5.90" waitingCount="1" stopTime="0.00" timeLoss="15.99" rerouteNo="0" devices="tripinfo_EW.cav.7 routing_EW.cav.7" vType="cav" speedFactor="1.17" vaporized=""/>
    <tripinfo id="BWE.0" depart="15.30" departLane="E0_0" departPos="12.10" departSpeed="12.50" departDelay="0.00" arrival="163.90" arrivalLane="-E1_0" arrivalPos="489.60" arrivalSpeed="12.41" duration="148.60" routeLength="987.90" waitingTime="58.80" waitingCount="1" stopTime="0.00" timeLoss="69.55" rerouteNo="0" devices="tripinfo_BWE.0 routing_BWE.0" vType="bus" speedFactor="1.00" vaporized=""/>
    <tripinfo id="WE.cav.9" depart="70.30" departLane="E0_2" departPos="5.10" departSpeed="13.89" departDelay="0.00" arrival="164.70" arrivalLane="-E1_1" arrivalPos="489.60" arrivalSpeed="13.83" duration="94.40" routeLength="994.90" waitingTime="13.00" waitingCount="1" stopTime="0.00" timeLoss="22.70" rerouteNo="0" devices="tripinfo_WE.cav.9 routing_WE.cav.9" vType="cav" speedFactor="1.18" vaporized=""/>
    <tripinfo id="EW.cav.8" depart="79.40" departLane="E1_1" departPos="5.10" departSpeed="13.89" departDelay="0.00" arrival="165.30" arrivalLane="-E0_0" arrivalPos="489.60" arrivalSpeed="13.74" duration="85.90" routeLength="994.90" waitingTime="4.20" waitingCount="1" stopTime="0.00" timeLoss="14.28" rerouteNo="0" devices="tripinfo_EW.cav.8 routing_EW.cav.8" vType="cav" speedFactor="0.99" vaporized=""/>
    <tripinfo id="EW.cav.9" depart="86.80" departLane="E1_2" departPos="5.10" departSpeed="13.89" departDelay="0.00" arrival="165.30" arrivalLane="-E0_1" arrivalPos="489.60" arrivalSpeed="13.74" duration="78.50" routeLength="994.90" waitingTime="0.00" waitingCount="0" stopTime="0.00" timeLoss="6.88" rerouteNo="0" devices="tripinfo_EW.cav.9 routing_EW.cav.9" vType="cav" speedFactor="1.10" vaporized=""/>
    <tripinfo id="WE.cav.4" depart="38.00" departLane="E0_1" departPos="5.10" departSpeed="13.89" departDelay="0.00" arrival="166.00" arrivalLane="-E1_0" arrivalPos="489.60" arrivalSpeed="13.51" duration="128.00" routeLength="994.90" waitingTime="42.30" waitingCount="1" stopTime="0.00" timeLoss="56.36" rerouteNo="0" devices="tripinfo_WE.cav.4 routing_WE.cav.4" vType="cav" speedFactor="0.94" vaporized=""/>
    <tripinfo id="WE.cav.11" depart="87.10" departLane="E0_2" departPos="5.10" departSpeed="13.89" departDelay="0.00" arrival="166.90" arrivalLane="-E1_1" arrivalPos="489.60" arrivalSpeed="13.78" duration="79.80" routeLength="994.90" waitingTime="0.00" waitingCount="0" stopTime="0.00" timeLoss="8.11" rerouteNo="0" devices="tripinfo_WE.cav.11 routing_WE.cav.11" vType="cav" speedFactor="0.90" vaporized=""/>
    <tripinfo id="WE.cav.6" depart="51.90" departLane="E0_1" departPos="5.10" departSpeed="13.89" departDelay="0.00" arrival="167.70" arrivalLane="-E1_0" arrivalPos="489.60" arrivalSpeed="13.48" duration="115.80" routeLength="994.90" waitingTime="29.60" waitingCount="1" stopTime="0.00" timeLoss="44.09" rerouteNo="0" devices="tripinfo_WE.cav.6 routing_WE.cav.6" vType="cav" speedFactor="0.89" vaporized=""/>
    <tripinfo id="EW.cav.10" depart="95.20" departLane="E1_1" departPos="5.10" departSpeed="13.89" departDelay="0.00" arrival="168.00" arrivalLane="-E0_0" arrivalPos="489.60" arrivalSpeed="13.84" duration="72.80" routeLength="994.90" waitingTime="0.00" waitingCount="0" stopTime="0.00" timeLoss="1.17" rerouteNo="0" devices="tripinfo_EW.cav.10 routing_EW.cav.10" vType="cav" speedFactor="1.09" vaporized=""/>
    <tripinfo id="EW.cav.11" depart="96.10" departLane="E1_2" departPos="5.10" departSpeed="13.89" departDelay="0.00" arrival="168.60" arrivalLane="-E0_1" arrivalPos="489.60" arrivalSpeed="13.87" duration="72.50" routeLength="994.90" waitingTime="0.00" waitingCount="0" stopTime="0.00" timeLoss="0.83" rerouteNo="0" devices="tripinfo_EW.cav.11 routing_EW.cav.11" vType="cav" speedFactor="1.04" vaporized=""/>
    <tripinfo id="WE.cav.7" depart="54.60" departLane="E0_1" departPos="5.10" departSpeed="13.89" departDelay="0.00" arrival="169.30" arrivalLane="-E1_0" arrivalPos="489.60" arrivalSpeed="13.45" duration="114.70" routeLength="994.90" waitingTime="28.30" waitingCount="1" stopTime="0.00" timeLoss="43.03" rerouteNo="0" devices="tripinfo_WE.cav.7 routing_WE.cav.7" vType="cav" speedFactor="0.87" vaporized=""/>
    <tripinfo id="WE.cav.10" depart="81.20" departLane="E0_2" departPos="5.10" departSpeed="13.89" departDelay="0.00" arrival="170.90" arrivalLane="-E1_0" arrivalPos="489.60" arrivalSpeed="13.44" duration="89.70" routeLength="994.90" waitingTime="3.20" waitingCount="1" stopTime="0.00" timeLoss="18.05" rerouteNo="0" devices="tripinfo_WE.cav.10 routing_WE.cav.10" vType="cav" speedFactor="1.02" vaporized=""/>
    <tripinfo id="EW.cav.12" depart="99.30" departLane="E1_2" departPos="5.10" departSpeed="13.89" departDelay="0.00" arrival="171.80" arrivalLane="-E0_0" arrivalPos="489.60" arrivalSpeed="13.88" duration="72.50" routeLength="994.90" waitingTime="0.00" waitingCount="0" stopTime="0.00" timeLoss="0.84" rerouteNo="0" devices="tripinfo_EW.cav.12 routing_EW.cav.12" vType="cav" speedFactor="1.04" vaporized=""/>
    <tripinfo id="NW.cav.2" depart="84.00" departLane="E3_1" departPos="5.10" departSpeed="13.89" departDelay="0.00" arrival="175.60" arrivalLane="-E0_0" arrivalPos="489.60" arrivalSpeed="13.88" duration="91.60" routeLength="979.93" waitingTime="14.70" waitingCount="1" stopTime="0.00" timeLoss="20.54" rerouteNo="0" devices="tripinfo_NW.cav.2 routing_NW.cav.2" vType="cav" speedFactor="1.18" vaporized=""/>
    <tripinfo id="NW.cav.3" depart="91.80" departLane="E3_1" departPos="5.10" departSpeed="13.89" departDelay="0.00" arrival="178.50" arrivalLane="-E0_0" arrivalPos="489.60" arrivalSpeed="13.86" duration="86.70" routeLength="979.93" waitingTime="8.20" waitingCount="1" stopTime="0.00" timeLoss="15.44" rerouteNo="0" devices="tripinfo_NW.cav.3 routing_NW.cav.3" vType="cav" speedFactor="1.03" vaporized=""/>
    <tripinfo id="SW.cav.0" depart="40.30" departLane="E2_0" departPos="5.10" departSpeed="13.89" departDelay="0.00" arrival="181.40" arrivalLane="-E0_0" arrivalPos="489.60" arrivalSpeed="13.86" duration="141.10" routeLength="992.89" waitingTime="62.60" waitingCount="1" stopTime="0.00" timeLoss="68.82" rerouteNo="0" devices="tripinfo_SW.cav.0 routing_SW.cav.0" vType="cav" speedFactor="0.94" vaporized=""/>
    <tripinfo id="SW.cav.1" depart="54.60" departLane="E2_1" departPos="5.10" departSpeed="13.76" departDelay="0.00" arrival="184.40" arrivalLane="-E0_1" arrivalPos="489.60" arrivalSpeed="13.76" duration="129.80" routeLength="992.89" waitingTime="49.90" waitingCount="1" stopTime="0.00" timeLoss="56.57" rerouteNo="0" devices="tripinfo_SW.cav.1 routing_SW.cav.1" vType="cav" speedFactor="0.83" vaporized=""/>
    <tripinfo id="SN.cav.1" depart="63.70" departLane="E2_1" departPos="5.10" departSpeed="13.89" departDelay="0.00" arrival="184.80" arrivalLane="-E3_0" arrivalPos="486.40" arrivalSpeed="13.89" duration="121.10" routeLength="994.90" waitingTime="42.40" waitingCount="1" stopTime="0.00" timeLoss="49.39" rerouteNo="0" devices="tripinfo_SN.cav.1 routing_SN.cav.1" vType="cav" speedFactor="0.93" vaporized=""/>
    <tripinfo id="NW.cav.4" depart="109.80" departLane="E3_1" departPos="5.10" departSpeed="13.89" departDelay="0.00" arrival="184.80" arrivalLane="-E0_0" arrivalPos="489.60" arrivalSpeed="13.87" duration="75.00" routeLength="979.93" waitingTime="0.00" waitingCount="0" stopTime="0.00" timeLoss="3.52" rerouteNo="0" devices="tripinfo_NW.cav.4 routing_NW.cav.4" vType="cav" speedFactor="0.90" vaporized=""/>
    <tripinfo id="SN.cav.2" depart="82.10" departLane="E2_1" departPos="5.10" departSpeed="13.89" departDelay="0.00" arrival="187.60" arrivalLane="-E3_0" arrivalPos="486.40" arrivalSpeed="13.85" duration="105.50" routeLength="994.90" waitingTime="25.30" waitingCount="1" stopTime="0.00" timeLoss="33.84" rerouteNo="0" devices="tripinfo_SN.cav.2 routing_SN.cav.2" vType="cav" speedFactor="0.97" vaporized=""/>
    <tripinfo id="NW.cav.5" depart="111.20" departLane="E3_1" departPos="5.10" departSpeed="13.89" departDelay="0.00" arrival="187.90" arrivalLane="-E0_0" arrivalPos="489.60" arrivalSpeed="13.87" duration="76.70" routeLength="979.93" waitingTime="0.00" waitingCount="0" stopTime="0.00" timeLoss="5.15" rerouteNo="0" devices="tripinfo_NW.cav.5 routing_NW.cav.5" vType="cav" speedFactor="0.88" vaporized=""/>
    <tripinfo id="NE.cav.1" depart="61.00" departLane="E3_1" departPos="5.10" departSpeed="13.89" departDelay="0.00" arrival="196.20" arrivalLane="-E1_0" arrivalPos="489.60" arrivalSpeed="13.89" duration="135.20" routeLength="992.89" waitingTime="57.30" waitingCount="1" stopTime="0.00" timeLoss="62.89" rerouteNo="0" devices="tripinfo_NE.cav.1 routing_NE.cav.1" vType="cav" speedFactor="0.95" vaporized=""/>
    <tripinfo id="NS.cav.2" depart="125.80" departLane="E3_1" departPos="5.10" departSpeed="13.89" departDelay="0.00" arrival="200.30" arrivalLane="-E2_0" arrivalPos="486.40" arrivalSpeed="13.89" duration="74.50" routeLength="994.90" waitingTime="0.00" waitingCount="0" stopTime="0.00" timeLoss="2.85" rerouteNo="0" devices="tripinfo_NS.cav.2 routing_NS.cav.2" vType="cav" speedFactor="0.90" vaporized=""/>
    <tripinfo id="SE.cav.2" depart="127.70" departLane="E2_0" departPos="5.10" departSpeed="13.89" departDelay="0.00" arrival="201.90" arrivalLane="-E1_0" arrivalPos="489.60" arrivalSpeed="13.89" duration="74.20" routeLength="979.93" waitingTime="0.00" waitingCount="0" stopTime="0.00" timeLoss="2.89" rerouteNo="0" devices="tripinfo_SE.cav.2 routing_SE.cav.2" vType="cav" speedFactor="1.02" vaporized=""/>
    <tripinfo id="NE.cav.2" depart="127.10" departLane="E3_0" departPos="5.10" departSpeed="13.89" departDelay="0.00" arrival="202.70" arrivalLane="-E1_1" arrivalPos="489.60" arrivalSpeed="13.89" duration="75.60" routeLength="992.89" waitingTime="0.00" waitingCount="0" stopTime="0.00" timeLoss="3.67" rerouteNo="0" devices="tripinfo_NE.cav.2 routing_NE.cav.2" vType="cav" speedFactor="1.14" vaporized=""/>
    <tripinfo id="SE.cav.3" depart="133.30" departLane="E2_0" departPos="5.10" departSpeed="13.89" departDelay="0.00" arrival="207.70" arrivalLane="-E1_0" arrivalPos="489.60" arrivalSpeed="13.89" duration="74.40" routeLength="979.93" waitingTime="0.00" waitingCount="0" stopTime="0.00" timeLoss="3.10" rerouteNo="0" devices="tripinfo_SE.cav.3 routing_SE.cav.3" vType="cav" speedFactor="1.02" vaporized=""/>
    <tripinfo id="WN.cav.2" depart="92.30" departLane="E0_2" departPos="5.10" departSpeed="13.89" departDelay="0.00" arrival="209.90" arrivalLane="-E3_0" arrivalPos="486.40" arrivalSpeed="13.89" duration="117.60" routeLength="992.89" waitingTime="39.80" waitingCount="1" stopTime="0.00" timeLoss="45.37" rerouteNo="0" devices="tripinfo_WN.cav.2 routing_WN.cav.2" vType="cav" speedFactor="0.96" vaporized=""/>
    <tripinfo id="ES.cav.2" depart="113.40" departLane="E1_2" departPos="5.10" departSpeed="13.89" departDelay="0.00" arrival="210.20" arrivalLane="-E2_0" arrivalPos="486.40" arrivalSpeed="13.89" duration="96.80" routeLength="992.89" waitingTime="18.60" waitingCount="1" stopTime="0.00" timeLoss="24.24" rerouteNo="0" devices="tripinfo_ES.cav.2 routing_ES.cav.2" vType="cav" speedFactor="0.85" vaporized=""/>
    <tripinfo id="WN.cav.3" depart="117.10" departLane="E0_2" departPos="5.10" departSpeed="13.89" departDelay="0.00" arrival="212.90" arrivalLane="-E3_0" arrivalPos="486.40" arrivalSpeed="13.86" duration="95.80" routeLength="992.89" waitingTime="16.30" waitingCount="1" stopTime="0.00" timeLoss="23.65" rerouteNo="0" devices="tripinfo_WN.cav.3 routing_WN.cav.3" vType="cav" speedFactor="1.02" vaporized=""/>
    <tripinfo id="ES.cav.3" depart="118.90" departLane="E1_2" departPos="5.10" departSpeed="13.89" departDelay="0.00" arrival="213.00" arrivalLane="-E2_0" arrivalPos="486.40" arrivalSpeed="13.85" duration="94.10" routeLength="992.89" waitingTime="14.60" waitingCount="1" stopTime="0.00" timeLoss="22.17" rerouteNo="0" devices="tripinfo_ES.cav.3 routing_ES.cav.3" vType="cav" speedFactor="1.10" vaporized=""/>
    <tripinfo id="ES.cav.4" depart="129.20" departLane="E1_1" departPos="5.10" departSpeed="13.89" departDelay="0.00" arrival="215.50" arrivalLane="-E2_0" arrivalPos="486.40" arrivalSpeed="13.82" duration="86.30" routeLength="992.89" waitingTime="5.60" waitingCount="1" stopTime="0.00" timeLoss="14.04" rerouteNo="0" devices="tripinfo_ES.cav.4 routing_ES.cav.4" vType="cav" speedFactor="0.97" vaporized=""/>
    <tripinfo id="NW.cav.6" depart="142.10" departLane="E3_0" departPos="5.10" departSpeed="13.89" departDelay="0.00" arrival="216.90" arrivalLane="-E0_0" arrivalPos="489.60" arrivalSpeed="13.89" duration="74.80" routeLength="979.93" waitingTime="0.00" waitingCount="0" stopTime="0.00" timeLoss="3.24" rerouteNo="0" devices="tripinfo_NW.cav.6 routing_NW.cav.6" vType="cav" speedFactor="0.88" vaporized=""/>
    <tripinfo id="WE.cav.12" depart="109.30" departLane="E0_2" departPos="5.10" departSpeed="13.89" departDelay="0.00" arrival="224.70" arrivalLane="-E1_0" arrivalPos="489.60" arrivalSpeed="13.89" duration="115.40" routeLength="994.90" waitingTime="37.90" waitingCount="1" stopTime="0.00" timeLoss="43.73" rerouteNo="0" devices="tripinfo_WE.cav.12 routing_WE.cav.12" vType="cav" speedFactor="1.09" vaporized=""/>
    <tripinfo id="EW.cav.14" depart="114.40" departLane="E1_2" departPos="5.10" departSpeed="13.49" departDelay="0.00" arrival="224.70" arrivalLane="-E0_1" arrivalPos="489.60" arrivalSpeed="13.89" duration="110.30" routeLength="994.90" waitingTime="32.40" waitingCount="1" stopTime="0.00" timeLoss="38.62" rerouteNo="0" devices="tripinfo_EW.cav.14 routing_EW.cav.14" vType="cav" speedFactor="0.85" vaporized=""/>
    <tripinfo id="WE.cav.13" depart="125.10" departLane="E0_0" departPos="5.10" departSpeed="13.89" departDelay="0.00" arrival="224.70" arrivalLane="-E1_1" arrivalPos="489.60" arrivalSpeed="13.89" duration="99.60" routeLength="994.90" waitingTime="21.70" waitingCount="1" stopTime="0.00" timeLoss="27.93" rerouteNo="0" devices="tripinfo_WE.cav.13 routing_WE.cav.13" vType="cav" speedFactor="1.00" vaporized=""/>
    <tripinfo id="EW.cav.13" depart="109.40" departLane="E1_2" departPos="5.10" departSpeed="13.89" departDelay="0.00" arrival="224.80" arrivalLane="-E0_0" arrivalPos="489.60" arrivalSpeed="13.89" duration="115.40" routeLength="994.90" waitingTime="37.80" waitingCount="1" stopTime="0.00" timeLoss="43.70" rerouteNo="0" devices="tripinfo_EW.cav.13 routing_EW.cav.13" vType="cav" speedFactor="1.00" vaporized=""/>
    <tripinfo id="EW.cav.16" depart="120.70" departLane="E1_2" departPos="5.10" departSpeed="13.89" departDelay="0.00" arrival="227.60" arrivalLane="-E0_1" arrivalPos="489.60" arrivalSpeed="13.86" duration="106.90" routeLength="994.90" waitingTime="27.20" waitingCount="1" stopTime="0.00" timeLoss="35.25" rerouteNo="0" devices="tripinfo_EW.cav.16 routing_EW.cav.16" vType="cav" speedFactor="1.00" vaporized=""/>
    <tripinfo id="WE.cav.14" depart="132.90" departLane="E0_1" departPos="5.10" departSpeed="13.89" departDelay="0.00" arrival="227.60" arrivalLane="-E1_0" arrivalPos="489.60" arrivalSpeed="13.86" duration="94.70" routeLength="994.90" waitingTime="15.70" waitingCount="1" stopTime="0.00" timeLoss="23.05" rerouteNo="0" devices="tripinfo_WE.cav.14 routing_WE.cav.14" vType="cav" speedFactor="1.12" vaporized=""/>
    <tripinfo id="EW.cav.15" depart="116.30" departLane="E1_2" departPos="5.10" departSpeed="13.89" departDelay="0.00" arrival="227.70" arrivalLane="-E0_0" arrivalPos="489.60" arrivalSpeed="13.86" duration="111.40" routeLength="994.90" waitingTime="31.70" waitingCount="1" stopTime="0.00" timeLoss="39.68" rerouteNo="0" devices="tripinfo_EW.cav.15 routing_EW.cav.15" vType="cav" speedFactor="1.17" vaporized=""/>
    <tripinfo id="EW.cav.17" depart="142.10" departLane="E1_1" departPos="5.10" departSpeed="13.89" departDelay="0.00" arrival="230.10" arrivalLane="-E0_0" arrivalPos="489.60" arrivalSpeed="13.82" duration="88.00" routeLength="994.90" waitingTime="7.70" waitingCount="1" stopTime="0.00" timeLoss="16.31" rerouteNo="0" devices="tripinfo_EW.cav.17 routing_EW.cav.17" vType="cav" speedFactor="0.91" vaporized=""/>
    <tripinfo id="EW.cav.18" depart="145.60" departLane="E1_1" departPos="5.10" departSpeed="13.89" departDelay="0.00" arrival="230.10" arrivalLane="-E0_1" arrivalPos="489.60" arrivalSpeed="13.82" duration="84.50" routeLength="994.90" waitingTime="4.00" waitingCount="1" stopTime="0.00" timeLoss="12.78" rerouteNo="0" devices="tripinfo_EW.cav.18 routing_EW.cav.18" vType="cav" speedFactor="0.91" vaporized=""/>
    <tripinfo id="WE.cav.15" depart="156.50" departLane="E0_1" departPos="5.10" departSpeed="13.89" departDelay="0.00" arrival="230.20" arrivalLane="-E1_0" arrivalPos="489.60" arrivalSpeed="13.84" duration="73.70" routeLength="994.90" waitingTime="0.00" waitingCount="0" stopTime="0.00" timeLoss="2.07" rerouteNo="0" devices="tripinfo_WE.cav.15 routing_WE.cav.15" vType="cav" speedFactor="0.94" vaporized=""/>
    <tripinfo id="EW.cav.19" depart="146.20" departLane="E1_1" departPos="5.10" departSpeed="11.01" departDelay="0.30" arrival="232.30" arrivalLane="-E0_0" arrivalPos="489.60" arrivalSpeed="13.78" duration="86.10" routeLength="994.90" waitingTime="3.20" waitingCount="1" stopTime="0.00" timeLoss="14.42" rerouteNo="0" devices="tripinfo_EW.cav.19 routing_EW.cav.19" vType="cav" speedFactor="1.04" vaporized=""/>
    <tripinfo id="EW.cav.20" depart="148.80" departLane="E1_1" departPos="5.10" departSpeed="13.89" departDelay="0.00" arrival="232.30" arrivalLane="-E0_1" arrivalPos="489.60" arrivalSpeed="13.78" duration="83.50" routeLength="994.90" waitingTime="2.40" waitingCount="1" stopTime="0.00" timeLoss="11.80" rerouteNo="0" devices="tripinfo_EW.cav.20 routing_EW.cav.20" vType="cav" speedFactor="1.02" vaporized=""/>
    <tripinfo id="EW.cav.21" depart="158.70" departLane="E1_1" departPos="5.10" departSpeed="13.89" departDelay="0.00" arrival="234.40" arrivalLane="-E0_0" arrivalPos="489.60" arrivalSpeed="13.75" duration="75.70" routeLength="994.90" waitingTime="0.00" waitingCount="0" stopTime="0.00" timeLoss="4.01" rerouteNo="0" devices="tripinfo_EW.cav.21 routing_EW.cav.21" vType="cav" speedFactor="0.96" vaporized=""/>