<?xml version="1.0" encoding="UTF-8"?>

<!-- generated on 2022-06-30 14:04:14 by Eclipse SUMO sumo Version 1.13.0
<configuration xmlns:xsi="http://www.w3.org/2001/XMLSchema-instance" xsi:noNamespaceSchemaLocation="http://sumo.dlr.de/xsd/sumoConfiguration.xsd">

    <input>
        <net-file value="data/Eastway-Central.net.xml"/>
        <route-files value="data/Eastway-Central.rou.xml"/>
        <additional-files value="data/Eastway-Central.add.xml"/>
    </input>

    <output>
        <tripinfo-output value="tripinfo.xml"/>
    </output>

    <time>
        <step-length value="0.1"/>
    </time>

    <report>
        <verbose value="true"/>
        <log value="logfile.xml"/>
        <duration-log.statistics value="true"/>
    </report>

    <traci_server>
        <remote-port value="61259"/>
    </traci_server>

    <gui_only>
        <tracker-interval value="0.1"/>
    </gui_only>

</configuration>
-->

<tripinfos xmlns:xsi="http://www.w3.org/2001/XMLSchema-instance" xsi:noNamespaceSchemaLocation="http://sumo.dlr.de/xsd/tripinfo_file.xsd">
    <tripinfo id="NS.0" depart="3.00" departLane="E1_2" departPos="5.10" departSpeed="21.78" departDelay="0.00" arrival="94.60" arrivalLane="E3_0" arrivalPos="983.03" arrivalSpeed="21.78" duration="91.60" routeLength="1995.03" waitingTime="0.00" waitingCount="0" stopTime="0.00" timeLoss="0.00" rerouteNo="1" devices="tripinfo_NS.0 routing_NS.0" vType="car" speedFactor="1.08" vaporized=""/>
    <tripinfo id="BNS.0" depart="0.00" departLane="E1_1" departPos="12.10" departSpeed="20.12" departDelay="0.00" arrival="100.30" arrivalLane="E3_0" arrivalPos="983.03" arrivalSpeed="20.09" duration="100.30" routeLength="1988.03" waitingTime="0.00" waitingCount="0" stopTime="0.00" timeLoss="1.46" rerouteNo="1" devices="tripinfo_BNS.0 routing_BNS.0" vType="bus" speedFactor="1.00" vaporized=""/>
    <tripinfo id="NS.3" depart="10.30" departLane="E1_1" departPos="5.10" departSpeed="21.94" departDelay="0.00" arrival="106.80" arrivalLane="E3_1" arrivalPos="983.03" arrivalSpeed="21.94" duration="96.50" routeLength="1995.03" waitingTime="0.00" waitingCount="0" stopTime="0.00" timeLoss="5.51" rerouteNo="1" devices="tripinfo_NS.3 routing_NS.3" vType="car" speedFactor="1.09" vaporized=""/>
    <tripinfo id="NS.4" depart="11.70" departLane="E1_2" departPos="5.10" departSpeed="21.07" departDelay="0.00" arrival="107.20" arrivalLane="E3_0" arrivalPos="983.03" arrivalSpeed="21.06" duration="95.50" routeLength="1995.03" waitingTime="0.00" waitingCount="0" stopTime="0.00" timeLoss="0.78" rerouteNo="1" devices="tripinfo_NS.4 routing_NS.4" vType="car" speedFactor="1.05" vaporized=""/>
    <tripinfo id="NS.1" depart="6.90" departLane="E1_1" departPos="5.10" departSpeed="17.83" departDelay="0.00" arrival="119.30" arrivalLane="E3_0" arrivalPos="983.03" arrivalSpeed="17.83" duration="112.40" routeLength="1995.03" waitingTime="0.00" waitingCount="0" stopTime="0.00" timeLoss="0.41" rerouteNo="1" devices="tripinfo_NS.1 routing_NS.1" vType="car" speedFactor="0.89" vaporized=""/>
    <tripinfo id="SE.0" depart="6.60" departLane="-E3_0" departPos="5.10" departSpeed="20.73" departDelay="0.00" arrival="120.80" arrivalLane="E2_0" arrivalPos="983.96" arrivalSpeed="16.12" duration="114.20" routeLength="1971.03" waitingTime="0.00" waitingCount="0" stopTime="0.00" timeLoss="4.56" rerouteNo="1" devices="tripinfo_SE.0 routing_SE.0" vType="car" speedFactor="1.03" vaporized=""/>
    <tripinfo id="SN.4" depart="28.60" departLane="-E3_2" departPos="5.10" departSpeed="23.25" departDelay="0.00" arrival="123.80" arrivalLane="-E1_0" arrivalPos="983.25" arrivalSpeed="23.58" duration="95.20" routeLength="1995.02" waitingTime="0.00" waitingCount="0" stopTime="0.00" timeLoss="10.58" rerouteNo="1" devices="tripinfo_SN.4 routing_SN.4" vType="car" speedFactor="1.17" vaporized=""/>
    <tripinfo id="NS.2" depart="8.90" departLane="E1_2" departPos="5.10" departSpeed="17.24" departDelay="0.00" arrival="126.20" arrivalLane="E3_0" arrivalPos="983.03" arrivalSpeed="17.24" duration="117.30" routeLength="1995.03" waitingTime="0.00" waitingCount="0" stopTime="0.00" timeLoss="1.53" rerouteNo="1" devices="tripinfo_NS.2 routing_NS.2" vType="car" speedFactor="0.86" vaporized=""/>
    <tripinfo id="SN.0" depart="12.60" departLane="-E3_1" departPos="5.10" departSpeed="22.59" departDelay="0.00" arrival="127.60" arrivalLane="-E1_0" arrivalPos="983.25" arrivalSpeed="22.53" duration="115.00" routeLength="1995.02" waitingTime="11.70" waitingCount="1" stopTime="0.00" timeLoss="26.70" rerouteNo="1" devices="tripinfo_SN.0 routing_SN.0" vType="car" speedFactor="1.12" vaporized=""/>
    <tripinfo id="NS.5" depart="16.40" departLane="E1_1" departPos="5.10" departSpeed="18.94" departDelay="0.00" arrival="128.40" arrivalLane="E3_0" arrivalPos="983.03" arrivalSpeed="18.38" duration="112.00" routeLength="1995.03" waitingTime="0.00" waitingCount="0" stopTime="0.00" timeLoss="6.63" rerouteNo="1" devices="tripinfo_NS.5 routing_NS.5" vType="car" speedFactor="0.94" vaporized=""/>
    <tripinfo id="NW.0" depart="18.00" departLane="E1_0" departPos="5.10" departSpeed="23.30" departDelay="0.00" arrival="130.60" arrivalLane="-E0_0" arrivalPos="983.27" arrivalSpeed="18.13" duration="112.60" routeLength="1970.87" waitingTime="0.00" waitingCount="0" stopTime="0.00" timeLoss="15.11" rerouteNo="1" devices="tripinfo_NW.0 routing_NW.0" vType="car" speedFactor="1.16" vaporized=""/>
    <tripinfo id="SN.2" depart="26.40" departLane="-E3_2" departPos="5.10" departSpeed="19.09" departDelay="0.00" arrival="135.10" arrivalLane="-E1_0" arrivalPos="983.25" arrivalSpeed="19.09" duration="108.70" routeLength="1995.02" waitingTime="0.00" waitingCount="0" stopTime="0.00" timeLoss="4.15" rerouteNo="1" devices="tripinfo_SN.2 routing_SN.2" vType="car" speedFactor="0.95" vaporized=""/>
    <tripinfo id="SN.3" depart="28.20" departLane="-E3_1" departPos="5.10" departSpeed="20.22" departDelay="0.00" arrival="135.10" arrivalLane="-E1_1" arrivalPos="983.25" arrivalSpeed="20.22" duration="106.90" routeLength="1995.02" waitingTime="0.00" waitingCount="0" stopTime="0.00" timeLoss="8.23" rerouteNo="1" devices="tripinfo_SN.3 routing_SN.3" vType="car" speedFactor="1.01" vaporized=""/>
    <tripinfo id="SN.5" depart="28.70" departLane="-E3_1" departPos="5.10" departSpeed="13.60" departDelay="0.00" arrival="138.80" arrivalLane="-E1_1" arrivalPos="983.25" arrivalSpeed="19.95" duration="110.10" routeLength="1995.02" waitingTime="0.00" waitingCount="0" stopTime="0.00" timeLoss="10.40" rerouteNo="1" devices="tripinfo_SN.5 routing_SN.5" vType="car" speedFactor="0.99" vaporized=""/>
    <tripinfo id="SN.1" depart="25.80" departLane="-E3_1" departPos="5.10" departSpeed="18.45" departDelay="0.00" arrival="139.30" arrivalLane="-E1_0" arrivalPos="983.25" arrivalSpeed="18.43" duration="113.50" routeLength="1995.02" waitingTime="0.00" waitingCount="0" stopTime="0.00" timeLoss="5.31" rerouteNo="1" devices="tripinfo_SN.1 routing_SN.1" vType="car" speedFactor="0.92" vaporized=""/>
    <tripinfo id="SN.6" depart="40.30" departLane="-E3_2" departPos="5.10" departSpeed="21.89" departDelay="0.00" arrival="140.90" arrivalLane="-E1_1" arrivalPos="983.25" arrivalSpeed="20.98" duration="100.60" routeLength="1995.02" waitingTime="0.00" waitingCount="0" stopTime="0.00" timeLoss="9.38" rerouteNo="1" devices="tripinfo_SN.6 routing_SN.6" vType="car" speedFactor="1.09" vaporized=""/>
    <tripinfo id="SE.1" depart="17.30" departLane="-E3_0" departPos="5.10" departSpeed="18.84" departDelay="0.00" arrival="142.20" arrivalLane="E2_0" arrivalPos="983.96" arrivalSpeed="14.65" duration="124.90" routeLength="1971.03" waitingTime="0.00" waitingCount="0" stopTime="0.00" timeLoss="4.28" rerouteNo="1" devices="tripinfo_SE.1 routing_SE.1" vType="car" speedFactor="0.94" vaporized=""/>
    <tripinfo id="SE.2" depart="26.60" departLane="-E3_0" departPos="5.10" departSpeed="22.77" departDelay="0.00" arrival="144.80" arrivalLane="E2_0" arrivalPos="983.96" arrivalSpeed="17.37" duration="118.20" routeLength="1971.03" waitingTime="0.00" waitingCount="0" stopTime="0.00" timeLoss="18.43" rerouteNo="1" devices="tripinfo_SE.2 routing_SE.2" vType="car" speedFactor="1.13" vaporized=""/>
    <tripinfo id="SW.1" depart="22.80" departLane="-E3_3" departPos="5.10" departSpeed="19.62" departDelay="0.00" arrival="145.80" arrivalLane="-E0_1" arrivalPos="983.27" arrivalSpeed="15.26" duration="123.00" routeLength="1995.46" waitingTime="0.00" waitingCount="0" stopTime="0.00" timeLoss="5.78" rerouteNo="1" devices="tripinfo_SW.1 routing_SW.1" vType="car" speedFactor="0.97" vaporized=""/>
    <tripinfo id="SW.0" depart="8.60" departLane="-E3_3" departPos="5.10" departSpeed="18.87" departDelay="0.00" arrival="145.90" arrivalLane="-E0_0" arrivalPos="983.27" arrivalSpeed="14.68" duration="137.30" routeLength="1995.46" waitingTime="7.90" waitingCount="1" stopTime="0.00" timeLoss="15.45" rerouteNo="1" devices="tripinfo_SW.0 routing_SW.0" vType="car" speedFactor="0.94" vaporized=""/>
    <tripinfo id="SE.3" depart="30.30" departLane="-E3_0" departPos="5.10" departSpeed="19.58" departDelay="0.00" arrival="155.50" arrivalLane="E2_0" arrivalPos="983.96" arrivalSpeed="15.23" duration="125.20" routeLength="1971.03" waitingTime="0.00" waitingCount="0" stopTime="0.00" timeLoss="9.21" rerouteNo="1" devices="tripinfo_SE.3 routing_SE.3" vType="car" speedFactor="0.97" vaporized=""/>
    <tripinfo id="WS.0" depart="1.20" departLane="E0_0" departPos="5.10" departSpeed="14.68" departDelay="0.00" arrival="156.90" arrivalLane="E3_0" arrivalPos="983.03" arrivalSpeed="18.88" duration="155.70" routeLength="1974.35" waitingTime="23.80" waitingCount="1" stopTime="0.00" timeLoss="35.12" rerouteNo="1" devices="tripinfo_WS.0 routing_WS.0" vType="car" speedFactor="0.94" vaporized=""/>
    <tripinfo id="SE.4" depart="35.30" departLane="-E3_0" departPos="5.10" departSpeed="21.97" departDelay="0.00" arrival="157.60" arrivalLane="E2_0" arrivalPos="983.96" arrivalSpeed="16.52" duration="122.30" routeLength="1971.03" waitingTime="0.00" waitingCount="0" stopTime="0.00" timeLoss="18.93" rerouteNo="1" devices="tripinfo_SE.4 routing_SE.4" vType="car" speedFactor="1.09" vaporized=""/>
    <tripinfo id="WN.1" depart="27.20" departLane="E0_2" departPos="5.10" departSpeed="18.07" departDelay="0.00" arrival="161.10" arrivalLane="-E1_0" arrivalPos="983.25" arrivalSpeed="23.23" duration="133.90" routeLength="1994.72" waitingTime="26.10" waitingCount="1" stopTime="0.00" timeLoss="35.01" rerouteNo="1" devices="tripinfo_WN.1 routing_WN.1" vType="car" speedFactor="1.15" vaporized=""/>
    <tripinfo id="WE.0" depart="0.00" departLane="E0_0" departPos="5.10" departSpeed="16.59" departDelay="0.00" arrival="162.50" arrivalLane="E2_0" arrivalPos="983.96" arrivalSpeed="16.58" duration="162.50" routeLength="1995.09" waitingTime="33.70" waitingCount="1" stopTime="0.00" timeLoss="42.18" rerouteNo="1" devices="tripinfo_WE.0 routing_WE.0" vType="car" speedFactor="1.06" vaporized=""/>
    <tripinfo id="EW.0" depart="6.80" departLane="-E2_0" departPos="5.10" departSpeed="16.37" departDelay="0.00" arrival="162.70" arrivalLane="-E0_0" arrivalPos="983.27" arrivalSpeed="16.37" duration="155.90" routeLength="1995.06" waitingTime="26.00" waitingCount="1" stopTime="0.00" timeLoss="33.91" rerouteNo="1" devices="tripinfo_EW.0 routing_EW.0" vType="car" speedFactor="1.05" vaporized=""/>
    <tripinfo id="EW.1" depart="11.00" departLane="-E2_1" departPos="5.10" departSpeed="16.06" departDelay="0.00" arrival="163.80" arrivalLane="-E0_0" arrivalPos="983.27" arrivalSpeed="16.06" duration="152.80" routeLength="1995.06" waitingTime="19.90" waitingCount="1" stopTime="0.00" timeLoss="28.50" rerouteNo="1" devices="tripinfo_EW.1 routing_EW.1" vType="car" speedFactor="1.03" vaporized=""/>
    <tripinfo id="WE.6" depart="27.20" departLane="E0_0" departPos="5.10" departSpeed="18.45" departDelay="0.00" arrival="164.60" arrivalLane="E2_0" arrivalPos="983.96" arrivalSpeed="17.81" duration="137.40" routeLength="1995.09" waitingTime="2.20" waitingCount="1" stopTime="0.00" timeLoss="29.22" rerouteNo="1" devices="tripinfo_WE.6 routing_WE.6" vType="car" speedFactor="1.18" vaporized=""/>
    <tripinfo id="WE.1" depart="2.20" departLane="E0_1" departPos="5.10" departSpeed="15.81" departDelay="0.00" arrival="164.70" arrivalLane="E2_0" arrivalPos="983.96" arrivalSpeed="15.81" duration="162.50" routeLength="1995.09" waitingTime="28.00" waitingCount="1" stopTime="0.00" timeLoss="36.27" rerouteNo="1" devices="tripinfo_WE.1 routing_WE.1" vType="car" speedFactor="1.01" vaporized=""/>
    <tripinfo id="ES.1" depart="33.70" departLane="-E2_3" departPos="5.10" departSpeed="14.98" departDelay="0.00" arrival="167.30" arrivalLane="E3_1" arrivalPos="983.03" arrivalSpeed="19.26" duration="133.60" routeLength="1991.17" waitingTime="5.70" waitingCount="1" stopTime="0.00" timeLoss="14.45" rerouteNo="1" devices="tripinfo_ES.1 routing_ES.1" vType="car" speedFactor="0.96" vaporized=""/>
    <tripinfo id="ES.0" depart="33.50" departLane="-E2_2" departPos="5.10" departSpeed="16.13" departDelay="0.00" arrival="167.40" arrivalLane="E3_0" arrivalPos="983.03" arrivalSpeed="19.32" duration="133.90" routeLength="1995.50" waitingTime="11.40" waitingCount="1" stopTime="0.00" timeLoss="23.03" rerouteNo="1" devices="tripinfo_ES.0 routing_ES.0" vType="car" speedFactor="1.03" vaporized=""/>
    <tripinfo id="EW.3" depart="20.30" departLane="-E2_1" departPos="5.10" departSpeed="15.93" departDelay="0.00" arrival="168.20" arrivalLane="-E0_1" arrivalPos="983.27" arrivalSpeed="15.93" duration="147.90" routeLength="1995.06" waitingTime="10.70" waitingCount="1" stopTime="0.00" timeLoss="22.66" rerouteNo="1" devices="tripinfo_EW.3 routing_EW.3" vType="car" speedFactor="1.02" vaporized=""/>
    <tripinfo id="EW.2" depart="13.90" departLane="-E2_0" departPos="5.10" departSpeed="15.51" departDelay="0.00" arrival="169.10" arrivalLane="-E0_0" arrivalPos="983.27" arrivalSpeed="15.51" duration="155.20" routeLength="1995.06" waitingTime="15.50" waitingCount="1" stopTime="0.00" timeLoss="26.55" rerouteNo="1" devices="tripinfo_EW.2 routing_EW.2" vType="car" speedFactor="0.99" vaporized=""/>
    <tripinfo id="ES.2" depart="37.20" departLane="-E2_2" departPos="5.10" departSpeed="16.24" departDelay="0.00" arrival="169.60" arrivalLane="E3_1" arrivalPos="983.03" arrivalSpeed="20.33" duration="132.40" routeLength="1995.50" waitingTime="4.50" waitingCount="1" stopTime="0.00" timeLoss="22.38" rerouteNo="1" devices="tripinfo_ES.2 routing_ES.2" vType="car" speedFactor="1.04" vaporized=""/>
    <tripinfo id="WE.8" depart="39.10" departLane="E0_1" departPos="5.10" departSpeed="16.33" departDelay="0.00" arrival="170.10" arrivalLane="E2_0" arrivalPos="983.96" arrivalSpeed="16.32" duration="131.00" routeLength="1995.09" waitingTime="0.00" waitingCount="0" stopTime="0.00" timeLoss="8.73" rerouteNo="1" devices="tripinfo_WE.8 routing_WE.8" vType="car" speedFactor="1.04" vaporized=""/>
    <tripinfo id="EW.4" depart="22.30" departLane="-E2_0" departPos="5.10" departSpeed="15.81" departDelay="0.00" arrival="172.40" arrivalLane="-E0_0" arrivalPos="983.27" arrivalSpeed="15.75" duration="150.10" routeLength="1995.06" waitingTime="8.50" waitingCount="1" stopTime="0.00" timeLoss="23.90" rerouteNo="1" devices="tripinfo_EW.4 routing_EW.4" vType="car" speedFactor="1.01" vaporized=""/>
    <tripinfo id="WN.0" depart="15.30" departLane="E0_2" departPos="5.10" departSpeed="13.75" departDelay="0.00" arrival="173.80" arrivalLane="-E1_0" arrivalPos="983.25" arrivalSpeed="17.67" duration="158.50" routeLength="1990.40" waitingTime="20.10" waitingCount="1" stopTime="0.00" timeLoss="28.74" rerouteNo="1" devices="tripinfo_WN.0 routing_WN.0" vType="car" speedFactor="0.88" vaporized=""/>
    <tripinfo id="WN.2" depart="53.50" departLane="E0_3" departPos="5.10" departSpeed="15.17" departDelay="0.00" arrival="176.10" arrivalLane="-E1_0" arrivalPos="983.25" arrivalSpeed="19.00" duration="122.60" routeLength="1994.72" waitingTime="0.00" waitingCount="0" stopTime="0.00" timeLoss="4.83" rerouteNo="1" devices="tripinfo_WN.2 routing_WN.2" vType="car" speedFactor="0.97" vaporized=""/>
    <tripinfo id="SN.7" depart="47.80" departLane="-E3_2" departPos="5.10" departSpeed="23.52" departDelay="0.00" arrival="178.60" arrivalLane="-E1_0" arrivalPos="983.25" arrivalSpeed="22.69" duration="130.80" routeLength="1995.02" waitingTime="19.50" waitingCount="1" stopTime="0.00" timeLoss="45.96" rerouteNo="1" devices="tripinfo_SN.7 routing_SN.7" vType="car" speedFactor="1.17" vaporized=""/>
    <tripinfo id="NW.1" depart="42.70" departLane="E1_0" departPos="5.10" departSpeed="18.12" departDelay="0.00" arrival="180.90" arrivalLane="-E0_0" arrivalPos="983.27" arrivalSpeed="14.09" duration="138.20" routeLength="1970.87" waitingTime="4.80" waitingCount="1" stopTime="0.00" timeLoss="12.82" rerouteNo="1" devices="tripinfo_NW.1 routing_NW.1" vType="car" speedFactor="0.90" vaporized=""/>
    <tripinfo id="WE.2" depart="6.60" departLane="E0_0" departPos="5.10" departSpeed="13.01" departDelay="0.00" arrival="181.10" arrivalLane="E2_0" arrivalPos="983.96" arrivalSpeed="13.01" duration="174.50" routeLength="1995.09" waitingTime="11.70" waitingCount="1" stopTime="0.00" timeLoss="21.01" rerouteNo="1" devices="tripinfo_WE.2 routing_WE.2" vType="car" speedFactor="0.83" vaporized=""/>
    <tripinfo id="NS.8" depart="29.30" departLane="E1_2" departPos="5.10" departSpeed="20.52" departDelay="0.00" arrival="183.00" arrivalLane="E3_1" arrivalPos="983.03" arrivalSpeed="20.52" duration="153.70" routeLength="1995.03" waitingTime="47.10" waitingCount="1" stopTime="0.00" timeLoss="56.43" rerouteNo="1" devices="tripinfo_NS.8 routing_NS.8" vType="car" speedFactor="1.02" vaporized=""/>
    <tripinfo id="WE.3" depart="14.60" departLane="E0_1" departPos="5.10" departSpeed="14.50" departDelay="0.00" arrival="183.30" arrivalLane="E2_0" arrivalPos="983.96" arrivalSpeed="14.17" duration="168.70" routeLength="1995.09" waitingTime="10.80" waitingCount="1" stopTime="0.00" timeLoss="31.13" rerouteNo="1" devices="tripinfo_WE.3 routing_WE.3" vType="car" speedFactor="0.93" vaporized=""/>
    <tripinfo id="SN.8" depart="50.30" departLane="-E3_1" departPos="5.10" departSpeed="20.04" departDelay="0.00" arrival="184.70" arrivalLane="-E1_0" arrivalPos="983.25" arrivalSpeed="20.04" duration="134.40" routeLength="1995.02" waitingTime="24.20" waitingCount="1" stopTime="0.00" timeLoss="34.77" rerouteNo="1" devices="tripinfo_SN.8 routing_SN.8" vType="car" speedFactor="1.00" vaporized=""/>
    <tripinfo id="SN.10" depart="52.80" departLane="-E3_2" departPos="5.10" departSpeed="20.59" departDelay="0.00" arrival="185.00" arrivalLane="-E1_1" arrivalPos="983.25" arrivalSpeed="20.59" duration="132.20" routeLength="1995.02" waitingTime="14.70" waitingCount="1" stopTime="0.00" timeLoss="35.29" rerouteNo="1" devices="tripinfo_SN.10 routing_SN.10" vType="car" speedFactor="1.02" vaporized=""/>
    <tripinfo id="NS.9" depart="31.80" departLane="E1_1" departPos="5.10" departSpeed="22.18" departDelay="0.00" arrival="185.20" arrivalLane="E3_0" arrivalPos="983.03" arrivalSpeed="21.47" duration="153.40" routeLength="1995.03" waitingTime="45.80" waitingCount="1" stopTime="0.00" timeLoss="63.42" rerouteNo="1" devices="tripinfo_NS.9 routing_NS.9" vType="car" speedFactor="1.10" vaporized=""/>
    <tripinfo id="WE.5" depart="25.10" departLane="E0_1" departPos="5.10" departSpeed="13.66" departDelay="0.00" arrival="186.30" arrivalLane="E2_0" arrivalPos="983.96" arrivalSpeed="13.59" duration="161.20" routeLength="1995.09" waitingTime="0.00" waitingCount="0" stopTime="0.00" timeLoss="15.10" rerouteNo="1" devices="tripinfo_WE.5 routing_WE.5" vType="car" speedFactor="0.87" vaporized=""/>
    <tripinfo id="SN.9" depart="52.20" departLane="-E3_1" departPos="5.10" departSpeed="22.99" departDelay="0.00" arrival="186.90" arrivalLane="-E1_1" arrivalPos="983.25" arrivalSpeed="21.77" duration="134.70" routeLength="1995.02" waitingTime="18.80" waitingCount="1" stopTime="0.00" timeLoss="47.91" rerouteNo="1" devices="tripinfo_SN.9 routing_SN.9" vType="car" speedFactor="1.14" vaporized=""/>
    <tripinfo id="SE.5" depart="56.20" departLane="-E3_0" departPos="5.10" departSpeed="18.86" departDelay="0.00" arrival="188.80" arrivalLane="E2_0" arrivalPos="983.96" arrivalSpeed="14.47" duration="132.60" routeLength="1971.03" waitingTime="0.00" waitingCount="0" stopTime="0.00" timeLoss="12.20" rerouteNo="1" devices="tripinfo_SE.5 routing_SE.5" vType="car" speedFactor="0.94" vaporized=""/>
    <tripinfo id="NS.10" depart="41.40" departLane="E1_1" departPos="5.10" departSpeed="20.07" departDelay="0.00" arrival="189.40" arrivalLane="E3_1" arrivalPos="983.03" arrivalSpeed="20.05" duration="148.00" routeLength="1995.03" waitingTime="35.90" waitingCount="1" stopTime="0.00" timeLoss="48.55" rerouteNo="1" devices="tripinfo_NS.10 routing_NS.10" vType="car" speedFactor="1.00" vaporized=""/>
    <tripinfo id="SN.12" depart="62.70" departLane="-E3_2" departPos="5.10" departSpeed="20.56" departDelay="0.00" arrival="189.70" arrivalLane="-E1_1" arrivalPos="983.25" arrivalSpeed="20.36" duration="127.00" routeLength="1995.02" waitingTime="13.20" waitingCount="1" stopTime="0.00" timeLoss="29.97" rerouteNo="1" devices="tripinfo_SN.12 routing_SN.12" vType="car" speedFactor="1.02" vaporized=""/>
    <tripinfo id="NS.6" depart="23.60" departLane="E1_2" departPos="5.10" departSpeed="17.90" departDelay="0.00" arrival="190.00" arrivalLane="E3_0" arrivalPos="983.03" arrivalSpeed="17.89" duration="166.40" routeLength="1995.03" waitingTime="46.00" waitingCount="1" stopTime="0.00" timeLoss="54.88" rerouteNo="1" devices="tripinfo_NS.6 routing_NS.6" vType="car" speedFactor="0.89" vaporized=""/>
    <tripinfo id="SN.11" depart="54.60" departLane="-E3_1" departPos="5.10" departSpeed="20.44" departDelay="0.00" arrival="190.10" arrivalLane="-E1_0" arrivalPos="983.25" arrivalSpeed="20.29" duration="135.50" routeLength="1995.02" waitingTime="14.20" waitingCount="1" stopTime="0.00" timeLoss="37.89" rerouteNo="1" devices="tripinfo_SN.11 routing_SN.11" vType="car" speedFactor="1.02" vaporized=""/>
    <tripinfo id="NS.13" depart="48.10" departLane="E1_2" departPos="5.10" departSpeed="22.05" departDelay="0.00" arrival="191.50" arrivalLane="E3_1" arrivalPos="983.03" arrivalSpeed="21.16" duration="143.40" routeLength="1995.03" waitingTime="34.50" waitingCount="1" stopTime="0.00" timeLoss="52.85" rerouteNo="1" devices="tripinfo_NS.13 routing_NS.13" vType="car" speedFactor="1.10" vaporized=""/>
    <tripinfo id="SN.13" depart="62.80" departLane="-E3_1" departPos="5.10" departSpeed="20.58" departDelay="0.00" arrival="192.30" arrivalLane="-E1_1" arrivalPos="983.25" arrivalSpeed="20.27" duration="129.50" routeLength="1995.02" waitingTime="12.50" waitingCount="1" stopTime="0.00" timeLoss="32.53" rerouteNo="1" devices="tripinfo_SN.13 routing_SN.13" vType="car" speedFactor="1.02" vaporized=""/>
    <tripinfo id="NS.7" depart="27.10" departLane="E1_1" departPos="5.10" departSpeed="18.74" departDelay="0.00" arrival="192.80" arrivalLane="E3_0" arrivalPos="983.03" arrivalSpeed="18.53" duration="165.70" routeLength="1995.03" waitingTime="44.40" waitingCount="1" stopTime="0.00" timeLoss="59.17" rerouteNo="1" devices="tripinfo_NS.7 routing_NS.7" vType="car" speedFactor="0.93" vaporized=""/>
    <tripinfo id="SN.16" depart="79.20" departLane="-E3_1" departPos="5.10" departSpeed="20.15" departDelay="0.00" arrival="193.00" arrivalLane="-E1_0" arrivalPos="983.25" arrivalSpeed="19.96" duration="113.80" routeLength="1995.02" waitingTime="0.00" waitingCount="0" stopTime="0.00" timeLoss="14.75" rerouteNo="1" devices="tripinfo_SN.16 routing_SN.16" vType="car" speedFactor="1.00" vaporized=""/>
    <tripinfo id="SE.6" depart="57.10" departLane="-E3_0" departPos="5.10" departSpeed="17.06" departDelay="0.00" arrival="193.20" arrivalLane="E2_0" arrivalPos="983.96" arrivalSpeed="14.18" duration="136.10" routeLength="1971.03" waitingTime="0.00" waitingCount="0" stopTime="0.00" timeLoss="11.53" rerouteNo="1" devices="tripinfo_SE.6 routing_SE.6" vType="car" speedFactor="0.91" vaporized=""/>
    <tripinfo id="NS.14" depart="48.40" departLane="E1_1" departPos="5.10" departSpeed="19.79" departDelay="0.00" arrival="195.00" arrivalLane="E3_0" arrivalPos="983.03" arrivalSpeed="19.54" duration="146.60" routeLength="1995.03" waitingTime="29.90" waitingCount="1" stopTime="0.00" timeLoss="47.70" rerouteNo="1" devices="tripinfo_NS.14 routing_NS.14" vType="car" speedFactor="1.00" vaporized=""/>
    <tripinfo id="SN.17" depart="79.30" departLane="-E3_2" departPos="5.10" departSpeed="20.98" departDelay="0.00" arrival="195.20" arrivalLane="-E1_0" arrivalPos="983.25" arrivalSpeed="20.37" duration="115.90" routeLength="1995.02" waitingTime="0.00" waitingCount="0" stopTime="0.00" timeLoss="20.77" rerouteNo="1" devices="tripinfo_SN.17 routing_SN.17" vType="car" speedFactor="1.04" vaporized=""/>
    <tripinfo id="SN.14" depart="69.10" departLane="-E3_2" departPos="5.10" departSpeed="19.82" departDelay="0.00" arrival="195.40" arrivalLane="-E1_1" arrivalPos="983.25" arrivalSpeed="19.68" duration="126.30" routeLength="1995.02" waitingTime="9.80" waitingCount="1" stopTime="0.00" timeLoss="25.54" rerouteNo="1" devices="tripinfo_SN.14 routing_SN.14" vType="car" speedFactor="0.98" vaporized=""/>
    <tripinfo id="SE.7" depart="63.70" departLane="-E3_0" departPos="5.10" departSpeed="19.57" departDelay="0.00" arrival="195.60" arrivalLane="E2_0" arrivalPos="983.96" arrivalSpeed="14.97" duration="131.90" routeLength="1971.03" waitingTime="0.00" waitingCount="0" stopTime="0.00" timeLoss="15.80" rerouteNo="1" devices="tripinfo_SE.7 routing_SE.7" vType="car" speedFactor="0.97" vaporized=""/>
    <tripinfo id="NS.15" depart="53.80" departLane="E1_2" departPos="5.10" departSpeed="21.78" departDelay="0.00" arrival="195.80" arrivalLane="E3_1" arrivalPos="983.03" arrivalSpeed="21.70" duration="142.00" routeLength="1995.03" waitingTime="29.10" waitingCount="1" stopTime="0.00" timeLoss="50.32" rerouteNo="1" devices="tripinfo_NS.15 routing_NS.15" vType="car" speedFactor="1.08" vaporized=""/>
    <tripinfo id="NS.11" depart="44.80" departLane="E1_2" departPos="5.10" departSpeed="17.64" departDelay="0.00" arrival="197.40" arrivalLane="E3_0" arrivalPos="983.03" arrivalSpeed="17.43" duration="152.60" routeLength="1995.03" waitingTime="25.70" waitingCount="1" stopTime="0.00" timeLoss="39.50" rerouteNo="1" devices="tripinfo_NS.11 routing_NS.11" vType="car" speedFactor="0.88" vaporized=""/>
    <tripinfo id="SN.18" depart="90.50" departLane="-E3_2" departPos="5.10" departSpeed="21.26" departDelay="0.00" arrival="197.40" arrivalLane="-E1_1" arrivalPos="983.25" arrivalSpeed="20.41" duration="106.90" routeLength="1995.02" waitingTime="0.00" waitingCount="0" stopTime="0.00" timeLoss="13.06" rerouteNo="1" devices="tripinfo_SN.18 routing_SN.18" vType="car" speedFactor="1.06" vaporized=""/>
    <tripinfo id="SN.15" depart="73.10" departLane="-E3_1" departPos="5.10" departSpeed="20.27" departDelay="0.00" arrival="197.70" arrivalLane="-E1_0" arrivalPos="983.25" arrivalSpeed="19.91" duration="124.60" routeLength="1995.02" waitingTime="7.30" waitingCount="1" stopTime="0.00" timeLoss="26.13" rerouteNo="1" devices="tripinfo_SN.15 routing_SN.15" vType="car" speedFactor="1.01" vaporized=""/>
    <tripinfo id="NS.18" depart="69.40" departLane="E1_1" departPos="5.10" departSpeed="20.77" departDelay="0.00" arrival="198.60" arrivalLane="E3_1" arrivalPos="983.03" arrivalSpeed="20.59" duration="129.20" routeLength="1995.03" waitingTime="13.20" waitingCount="1" stopTime="0.00" timeLoss="33.11" rerouteNo="1" devices="tripinfo_NS.18 routing_NS.18" vType="car" speedFactor="1.03" vaporized=""/>
    <tripinfo id="SN.19" depart="94.00" departLane="-E3_1" departPos="5.10" departSpeed="21.43" departDelay="0.00" arrival="199.50" arrivalLane="-E1_0" arrivalPos="983.25" arrivalSpeed="20.57" duration="105.50" routeLength="1995.02" waitingTime="0.00" waitingCount="0" stopTime="0.00" timeLoss="12.31" rerouteNo="1" devices="tripinfo_SN.19 routing_SN.19" vType="car" speedFactor="1.06" vaporized=""/>
    <tripinfo id="SE.8" depart="82.10" departLane="-E3_0" departPos="5.10" departSpeed="20.46" departDelay="0.00" arrival="200.10" arrivalLane="E2_0" arrivalPos="983.96" arrivalSpeed="15.89" duration="118.00" routeLength="1971.03" waitingTime="0.00" waitingCount="0" stopTime="0.00" timeLoss="6.88" rerouteNo="1" devices="tripinfo_SE.8 routing_SE.8" vType="car" speedFactor="1.02" vaporized=""/>
    <tripinfo id="NS.12" depart="46.60" departLane="E1_1" departPos="5.10" departSpeed="17.11" departDelay="0.00" arrival="200.90" arrivalLane="E3_0" arrivalPos="983.03" arrivalSpeed="17.05" duration="154.30" routeLength="1995.03" waitingTime="22.90" waitingCount="1" stopTime="0.00" timeLoss="37.67" rerouteNo="1" devices="tripinfo_NS.12 routing_NS.12" vType="car" speedFactor="0.85" vaporized=""/>
    <tripinfo id="NS.19" depart="73.90" departLane="E1_2" departPos="5.10" departSpeed="20.81" departDelay="0.00" arrival="201.00" arrivalLane="E3_0" arrivalPos="983.03" arrivalSpeed="20.43" duration="127.10" routeLength="1995.03" waitingTime="10.90" waitingCount="1" stopTime="0.00" timeLoss="31.23" rerouteNo="1" devices="tripinfo_NS.19 routing_NS.19" vType="car" speedFactor="1.03" vaporized=""/>
    <tripinfo id="EN.0" depart="75.60" departLane="-E2_0" departPos="5.10" departSpeed="17.96" departDelay="0.00" arrival="201.20" arrivalLane="-E1_1" arrivalPos="983.25" arrivalSpeed="21.54" duration="125.60" routeLength="1974.69" waitingTime="11.00" waitingCount="1" stopTime="0.00" timeLoss="26.99" rerouteNo="1" devices="tripinfo_EN.0 routing_EN.0" vType="car" speedFactor="1.15" vaporized=""/>