<?xml version="1.0" encoding="UTF-8"?>

<!-- generated on 2022-06-27 06:43:23 by Eclipse SUMO sumo Version 1.13.0
<configuration xmlns:xsi="http://www.w3.org/2001/XMLSchema-instance" xsi:noNamespaceSchemaLocation="http://sumo.dlr.de/xsd/sumoConfiguration.xsd">

    <input>
        <net-file value="data/Eastway-Central.net.xml"/>
        <route-files value="data/cav100.rou.xml"/>
        <additional-files value="data/Eastway-Central.add.xml"/>
    </input>

    <output>
        <tripinfo-output value="tripinfo.xml"/>
    </output>

    <time>
        <step-length value="0.1"/>
    </time>

    <report>
        <verbose value="true"/>
        <log value="logfile.xml"/>
        <duration-log.statistics value="true"/>
    </report>

    <traci_server>
        <remote-port value="51765"/>
    </traci_server>

    <random_number>
        <random value="true"/>
    </random_number>

    <gui_only>
        <tracker-interval value="0.1"/>
    </gui_only>

</configuration>
-->

<tripinfos xmlns:xsi="http://www.w3.org/2001/XMLSchema-instance" xsi:noNamespaceSchemaLocation="http://sumo.dlr.de/xsd/tripinfo_file.xsd">
    <tripinfo id="SN.cav.0" depart="0.80" departLane="-E3_1" departPos="5.10" departSpeed="23.61" departDelay="0.00" arrival="100.10" arrivalLane="-E1_0" arrivalPos="983.25" arrivalSpeed="23.61" duration="99.30" routeLength="1995.02" waitingTime="5.90" waitingCount="1" stopTime="0.00" timeLoss="14.78" rerouteNo="1" devices="tripinfo_SN.cav.0 routing_SN.cav.0" vType="cav" speedFactor="1.17" vaporized=""/>
    <tripinfo id="SN.cav.2" depart="7.40" departLane="-E3_1" departPos="5.10" departSpeed="24.16" departDelay="0.00" arrival="102.40" arrivalLane="-E1_0" arrivalPos="983.25" arrivalSpeed="23.91" duration="95.00" routeLength="1995.02" waitingTime="0.00" waitingCount="0" stopTime="0.00" timeLoss="12.40" rerouteNo="1" devices="tripinfo_SN.cav.2 routing_SN.cav.2" vType="cav" speedFactor="1.20" vaporized=""/>
    <tripinfo id="NS.cav.1" depart="5.10" departLane="E1_1" departPos="5.10" departSpeed="20.38" departDelay="0.00" arrival="104.30" arrivalLane="E3_0" arrivalPos="983.03" arrivalSpeed="20.38" duration="99.20" routeLength="1995.03" waitingTime="0.00" waitingCount="0" stopTime="0.00" timeLoss="1.30" rerouteNo="1" devices="tripinfo_NS.cav.1 routing_NS.cav.1" vType="cav" speedFactor="1.01" vaporized=""/>
    <tripinfo id="NS.cav.2" depart="9.90" departLane="E1_1" departPos="5.10" departSpeed="20.74" departDelay="0.00" arrival="108.00" arrivalLane="E3_0" arrivalPos="983.03" arrivalSpeed="20.70" duration="98.10" routeLength="1995.03" waitingTime="0.00" waitingCount="0" stopTime="0.00" timeLoss="1.87" rerouteNo="1" devices="tripinfo_NS.cav.2 routing_NS.cav.2" vType="cav" speedFactor="1.03" vaporized=""/>
    <tripinfo id="BNS.0" depart="0.00" departLane="E1_1" departPos="12.10" departSpeed="20.12" departDelay="0.00" arrival="110.90" arrivalLane="E3_0" arrivalPos="983.03" arrivalSpeed="19.78" duration="110.90" routeLength="1988.03" waitingTime="0.00" waitingCount="0" stopTime="0.00" timeLoss="12.06" rerouteNo="1" devices="tripinfo_BNS.0 routing_BNS.0" vType="bus" speedFactor="1.00" vaporized=""/>
    <tripinfo id="SN.cav.3" depart="12.10" departLane="-E3_1" departPos="5.10" departSpeed="20.17" departDelay="0.00" arrival="112.70" arrivalLane="-E1_0" arrivalPos="983.25" arrivalSpeed="20.17" duration="100.60" routeLength="1995.02" waitingTime="0.00" waitingCount="0" stopTime="0.00" timeLoss="1.66" rerouteNo="1" devices="tripinfo_SN.cav.3 routing_SN.cav.3" vType="cav" speedFactor="1.00" vaporized=""/>
    <tripinfo id="SN.cav.5" depart="29.30" departLane="-E3_2" departPos="5.10" departSpeed="24.16" departDelay="0.00" arrival="114.80" arrivalLane="-E1_1" arrivalPos="983.25" arrivalSpeed="24.16" duration="85.50" routeLength="1995.02" waitingTime="0.00" waitingCount="0" stopTime="0.00" timeLoss="2.86" rerouteNo="1" devices="tripinfo_SN.cav.5 routing_SN.cav.5" vType="cav" speedFactor="1.20" vaporized=""/>
    <tripinfo id="SN.cav.1" depart="3.40" departLane="-E3_2" departPos="5.10" departSpeed="17.91" departDelay="0.00" arrival="115.90" arrivalLane="-E1_0" arrivalPos="983.25" arrivalSpeed="17.90" duration="112.50" routeLength="1995.02" waitingTime="0.00" waitingCount="0" stopTime="0.00" timeLoss="1.13" rerouteNo="1" devices="tripinfo_SN.cav.1 routing_SN.cav.1" vType="cav" speedFactor="0.89" vaporized=""/>
    <tripinfo id="NS.cav.5" depart="19.60" departLane="E1_2" departPos="5.10" departSpeed="20.38" departDelay="0.00" arrival="118.90" arrivalLane="E3_0" arrivalPos="983.03" arrivalSpeed="20.38" duration="99.30" routeLength="1995.03" waitingTime="0.00" waitingCount="0" stopTime="0.00" timeLoss="1.38" rerouteNo="1" devices="tripinfo_NS.cav.5 routing_NS.cav.5" vType="cav" speedFactor="1.01" vaporized=""/>
    <tripinfo id="NS.cav.0" depart="1.60" departLane="E1_2" departPos="5.10" departSpeed="17.02" departDelay="0.00" arrival="119.70" arrivalLane="E3_0" arrivalPos="983.03" arrivalSpeed="16.65" duration="118.10" routeLength="1995.03" waitingTime="0.00" waitingCount="0" stopTime="0.00" timeLoss="0.89" rerouteNo="1" devices="tripinfo_NS.cav.0 routing_NS.cav.0" vType="cav" speedFactor="0.85" vaporized=""/>
    <tripinfo id="NS.cav.7" depart="25.30" departLane="E1_2" departPos="5.10" departSpeed="21.57" departDelay="0.00" arrival="120.70" arrivalLane="E3_1" arrivalPos="983.03" arrivalSpeed="21.28" duration="95.40" routeLength="1995.03" waitingTime="0.00" waitingCount="0" stopTime="0.00" timeLoss="2.89" rerouteNo="1" devices="tripinfo_NS.cav.7 routing_NS.cav.7" vType="cav" speedFactor="1.07" vaporized=""/>
    <tripinfo id="NS.cav.3" depart="13.20" departLane="E1_1" departPos="5.10" departSpeed="19.56" departDelay="0.00" arrival="121.10" arrivalLane="E3_0" arrivalPos="983.03" arrivalSpeed="18.10" duration="107.90" routeLength="1995.03" waitingTime="0.00" waitingCount="0" stopTime="0.00" timeLoss="5.84" rerouteNo="1" devices="tripinfo_NS.cav.3 routing_NS.cav.3" vType="cav" speedFactor="0.97" vaporized=""/>
    <tripinfo id="NS.cav.8" depart="28.60" departLane="E1_2" departPos="5.10" departSpeed="23.29" departDelay="0.00" arrival="122.10" arrivalLane="E3_1" arrivalPos="983.03" arrivalSpeed="21.87" duration="93.50" routeLength="1995.03" waitingTime="0.00" waitingCount="0" stopTime="0.00" timeLoss="7.78" rerouteNo="1" devices="tripinfo_NS.cav.8 routing_NS.cav.8" vType="cav" speedFactor="1.16" vaporized=""/>
    <tripinfo id="NS.cav.4" depart="14.30" departLane="E1_2" departPos="5.10" departSpeed="18.02" departDelay="0.00" arrival="125.70" arrivalLane="E3_0" arrivalPos="983.03" arrivalSpeed="18.00" duration="111.40" routeLength="1995.03" waitingTime="0.00" waitingCount="0" stopTime="0.00" timeLoss="0.61" rerouteNo="1" devices="tripinfo_NS.cav.4 routing_NS.cav.4" vType="cav" speedFactor="0.90" vaporized=""/>
    <tripinfo id="SN.cav.4" depart="14.10" departLane="-E3_2" departPos="5.10" departSpeed="17.83" departDelay="0.00" arrival="126.40" arrivalLane="-E1_0" arrivalPos="983.25" arrivalSpeed="17.83" duration="112.30" routeLength="1995.02" waitingTime="0.00" waitingCount="0" stopTime="0.00" timeLoss="0.41" rerouteNo="1" devices="tripinfo_SN.cav.4 routing_SN.cav.4" vType="cav" speedFactor="0.89" vaporized=""/>
    <tripinfo id="ES.cav.1" depart="17.40" departLane="-E2_3" departPos="5.10" departSpeed="17.91" departDelay="0.00" arrival="129.70" arrivalLane="E3_1" arrivalPos="983.03" arrivalSpeed="23.03" duration="112.30" routeLength="1995.50" waitingTime="3.70" waitingCount="1" stopTime="0.00" timeLoss="12.51" rerouteNo="1" devices="tripinfo_ES.cav.1 routing_ES.cav.1" vType="cav" speedFactor="1.14" vaporized=""/>
    <tripinfo id="ES.cav.0" depart="15.30" departLane="-E2_2" departPos="5.10" departSpeed="15.62" departDelay="0.00" arrival="133.00" arrivalLane="E3_0" arrivalPos="983.03" arrivalSpeed="20.08" duration="117.70" routeLength="1991.17" waitingTime="0.00" waitingCount="0" stopTime="0.00" timeLoss="3.41" rerouteNo="1" devices="tripinfo_ES.cav.0 routing_ES.cav.0" vType="cav" speedFactor="1.00" vaporized=""/>
    <tripinfo id="SE.cav.0" depart="14.00" departLane="-E3_0" departPos="5.10" departSpeed="19.34" departDelay="0.00" arrival="135.30" arrivalLane="E2_0" arrivalPos="983.96" arrivalSpeed="15.04" duration="121.30" routeLength="1971.03" waitingTime="0.00" waitingCount="0" stopTime="0.00" timeLoss="3.80" rerouteNo="1" devices="tripinfo_SE.cav.0 routing_SE.cav.0" vType="cav" speedFactor="0.96" vaporized=""/>
    <tripinfo id="SE.cav.1" depart="26.20" departLane="-E3_0" departPos="5.10" departSpeed="20.67" departDelay="0.00" arrival="140.50" arrivalLane="E2_0" arrivalPos="983.96" arrivalSpeed="16.07" duration="114.30" routeLength="1971.03" waitingTime="0.00" waitingCount="0" stopTime="0.00" timeLoss="4.34" rerouteNo="1" devices="tripinfo_SE.cav.1 routing_SE.cav.1" vType="cav" speedFactor="1.03" vaporized=""/>
    <tripinfo id="NW.cav.2" depart="22.50" departLane="E1_0" departPos="5.10" departSpeed="17.07" departDelay="0.00" arrival="143.40" arrivalLane="-E0_0" arrivalPos="983.27" arrivalSpeed="18.40" duration="120.90" routeLength="1970.87" waitingTime="0.00" waitingCount="0" stopTime="0.00" timeLoss="24.91" rerouteNo="1" devices="tripinfo_NW.cav.2 routing_NW.cav.2" vType="cav" speedFactor="1.18" vaporized=""/>
    <tripinfo id="EN.cav.0" depart="27.40" departLane="-E2_0" departPos="5.10" departSpeed="15.33" departDelay="0.00" arrival="146.80" arrivalLane="-E1_0" arrivalPos="983.25" arrivalSpeed="19.71" duration="119.40" routeLength="1974.69" waitingTime="0.00" waitingCount="0" stopTime="0.00" timeLoss="3.91" rerouteNo="1" devices="tripinfo_EN.cav.0 routing_EN.cav.0" vType="cav" speedFactor="0.98" vaporized=""/>
    <tripinfo id="NW.cav.4" depart="27.90" departLane="E1_0" departPos="5.10" departSpeed="23.32" departDelay="0.00" arrival="148.40" arrivalLane="-E0_1" arrivalPos="983.27" arrivalSpeed="18.14" duration="120.50" routeLength="1970.87" waitingTime="0.00" waitingCount="0" stopTime="0.00" timeLoss="23.13" rerouteNo="1" devices="tripinfo_NW.cav.4 routing_NW.cav.4" vType="cav" speedFactor="1.16" vaporized=""/>
    <tripinfo id="WS.cav.0" depart="17.00" departLane="E0_0" departPos="5.10" departSpeed="16.74" departDelay="0.00" arrival="148.70" arrivalLane="E3_0" arrivalPos="983.03" arrivalSpeed="21.52" duration="131.70" routeLength="1974.35" waitingTime="15.40" waitingCount="1" stopTime="0.00" timeLoss="26.05" rerouteNo="1" devices="tripinfo_WS.cav.0 routing_WS.cav.0" vType="cav" speedFactor="1.07" vaporized=""/>
    <tripinfo id="NW.cav.0" depart="20.50" departLane="E1_0" departPos="5.10" departSpeed="19.49" departDelay="0.00" arrival="148.90" arrivalLane="-E0_0" arrivalPos="983.27" arrivalSpeed="15.16" duration="128.40" routeLength="1970.87" waitingTime="0.00" waitingCount="0" stopTime="0.00" timeLoss="11.88" rerouteNo="1" devices="tripinfo_NW.cav.0 routing_NW.cav.0" vType="cav" speedFactor="0.97" vaporized=""/>
    <tripinfo id="NW.cav.1" depart="21.80" departLane="E1_0" departPos="5.10" departSpeed="18.98" departDelay="0.00" arrival="152.60" arrivalLane="-E0_0" arrivalPos="983.27" arrivalSpeed="15.06" duration="130.80" routeLength="1970.87" waitingTime="0.00" waitingCount="0" stopTime="0.00" timeLoss="13.51" rerouteNo="1" devices="tripinfo_NW.cav.1 routing_NW.cav.1" vType="cav" speedFactor="0.96" vaporized=""/>
    <tripinfo id="WS.cav.2" depart="22.50" departLane="E0_0" departPos="5.10" departSpeed="16.34" departDelay="0.00" arrival="156.10" arrivalLane="E3_0" arrivalPos="983.03" arrivalSpeed="21.00" duration="133.60" routeLength="1974.35" waitingTime="5.90" waitingCount="1" stopTime="0.00" timeLoss="25.22" rerouteNo="1" devices="tripinfo_WS.cav.2 routing_WS.cav.2" vType="cav" speedFactor="1.04" vaporized=""/>
    <tripinfo id="SE.cav.2" depart="35.20" departLane="-E3_0" departPos="5.10" departSpeed="19.33" departDelay="0.00" arrival="156.50" arrivalLane="E2_0" arrivalPos="983.96" arrivalSpeed="15.04" duration="121.30" routeLength="1971.03" waitingTime="0.00" waitingCount="0" stopTime="0.00" timeLoss="3.73" rerouteNo="1" devices="tripinfo_SE.cav.2 routing_SE.cav.2" vType="cav" speedFactor="0.96" vaporized=""/>
    <tripinfo id="EW.cav.0" depart="16.70" departLane="-E2_0" departPos="5.10" departSpeed="16.24" departDelay="0.00" arrival="157.30" arrivalLane="-E0_0" arrivalPos="983.27" arrivalSpeed="16.24" duration="140.60" routeLength="1995.06" waitingTime="10.90" waitingCount="1" stopTime="0.00" timeLoss="17.70" rerouteNo="1" devices="tripinfo_EW.cav.0 routing_EW.cav.0" vType="cav" speedFactor="1.04" vaporized=""/>
    <tripinfo id="WS.cav.1" depart="19.20" departLane="E0_0" departPos="5.10" departSpeed="14.16" departDelay="0.00" arrival="159.10" arrivalLane="E3_0" arrivalPos="983.03" arrivalSpeed="18.19" duration="139.90" routeLength="1974.35" waitingTime="5.60" waitingCount="1" stopTime="0.00" timeLoss="14.94" rerouteNo="1" devices="tripinfo_WS.cav.1 routing_WS.cav.1" vType="cav" speedFactor="0.90" vaporized=""/>
    <tripinfo id="NW.cav.3" depart="25.30" departLane="E1_0" departPos="5.10" departSpeed="17.90" departDelay="0.00" arrival="161.20" arrivalLane="-E0_0" arrivalPos="983.27" arrivalSpeed="13.92" duration="135.90" routeLength="1970.87" waitingTime="0.00" waitingCount="0" stopTime="0.00" timeLoss="8.90" rerouteNo="1" devices="tripinfo_NW.cav.3 routing_NW.cav.3" vType="cav" speedFactor="0.89" vaporized=""/>
    <tripinfo id="WE.cav.0" depart="2.60" departLane="E0_0" departPos="5.10" departSpeed="14.59" departDelay="0.00" arrival="164.00" arrivalLane="E2_0" arrivalPos="983.96" arrivalSpeed="14.59" duration="161.40" routeLength="1995.09" waitingTime="18.50" waitingCount="1" stopTime="0.00" timeLoss="24.62" rerouteNo="1" devices="tripinfo_WE.cav.0 routing_WE.cav.0" vType="cav" speedFactor="0.93" vaporized=""/>
    <tripinfo id="WE.cav.1" depart="4.60" departLane="E0_1" departPos="5.10" departSpeed="14.55" departDelay="0.00" arrival="164.00" arrivalLane="E2_1" arrivalPos="983.96" arrivalSpeed="14.55" duration="159.40" routeLength="1995.09" waitingTime="16.30" waitingCount="1" stopTime="0.00" timeLoss="22.22" rerouteNo="1" devices="tripinfo_WE.cav.1 routing_WE.cav.1" vType="cav" speedFactor="0.93" vaporized=""/>
    <tripinfo id="WE.cav.4" depart="15.10" departLane="E0_0" departPos="5.10" departSpeed="17.99" departDelay="0.00" arrival="165.30" arrivalLane="E2_1" arrivalPos="983.96" arrivalSpeed="16.13" duration="150.20" routeLength="1995.09" waitingTime="16.10" waitingCount="1" stopTime="0.00" timeLoss="39.23" rerouteNo="1" devices="tripinfo_WE.cav.4 routing_WE.cav.4" vType="cav" speedFactor="1.15" vaporized=""/>
    <tripinfo id="WE.cav.2" depart="5.60" departLane="E0_0" departPos="5.10" departSpeed="16.52" departDelay="0.00" arrival="165.50" arrivalLane="E2_0" arrivalPos="983.96" arrivalSpeed="15.70" duration="159.90" routeLength="1995.09" waitingTime="18.30" waitingCount="1" stopTime="0.00" timeLoss="39.05" rerouteNo="1" devices="tripinfo_WE.cav.2 routing_WE.cav.2" vType="cav" speedFactor="1.06" vaporized=""/>
    <tripinfo id="WE.cav.5" depart="18.20" departLane="E0_1" departPos="5.10" departSpeed="17.75" departDelay="0.00" arrival="166.60" arrivalLane="E2_1" arrivalPos="983.96" arrivalSpeed="16.30" duration="148.40" routeLength="1995.09" waitingTime="16.10" waitingCount="1" stopTime="0.00" timeLoss="35.97" rerouteNo="1" devices="tripinfo_WE.cav.5 routing_WE.cav.5" vType="cav" speedFactor="1.13" vaporized=""/>
    <tripinfo id="WE.cav.3" depart="11.10" departLane="E0_1" departPos="5.10" departSpeed="16.84" departDelay="0.00" arrival="167.00" arrivalLane="E2_0" arrivalPos="983.96" arrivalSpeed="15.98" duration="155.90" routeLength="1995.09" waitingTime="18.40" waitingCount="1" stopTime="0.00" timeLoss="37.38" rerouteNo="1" devices="tripinfo_WE.cav.3 routing_WE.cav.3" vType="cav" speedFactor="1.08" vaporized=""/>
    <tripinfo id="WE.cav.6" depart="29.40" departLane="E0_1" departPos="5.10" departSpeed="19.07" departDelay="0.00" arrival="167.80" arrivalLane="E2_1" arrivalPos="983.96" arrivalSpeed="16.79" duration="138.40" routeLength="1995.09" waitingTime="10.40" waitingCount="1" stopTime="0.00" timeLoss="33.81" rerouteNo="1" devices="tripinfo_WE.cav.6 routing_WE.cav.6" vType="cav" speedFactor="1.22" vaporized=""/>
    <tripinfo id="WE.cav.7" depart="33.40" departLane="E0_0" departPos="5.10" departSpeed="17.39" departDelay="0.00" arrival="168.40" arrivalLane="E2_0" arrivalPos="983.96" arrivalSpeed="16.28" duration="135.00" routeLength="1995.09" waitingTime="2.30" waitingCount="1" stopTime="0.00" timeLoss="20.21" rerouteNo="1" devices="tripinfo_WE.cav.7 routing_WE.cav.7" vType="cav" speedFactor="1.11" vaporized=""/>
    <tripinfo id="NS.cav.9" depart="37.80" departLane="E1_1" departPos="5.10" departSpeed="23.02" departDelay="0.00" arrival="169.10" arrivalLane="E3_0" arrivalPos="983.03" arrivalSpeed="23.01" duration="131.30" routeLength="1995.03" waitingTime="35.70" waitingCount="1" stopTime="0.00" timeLoss="44.62" rerouteNo="1" devices="tripinfo_NS.cav.9 routing_NS.cav.9" vType="cav" speedFactor="1.14" vaporized=""/>
    <tripinfo id="WE.cav.9" depart="40.10" departLane="E0_0" departPos="5.10" departSpeed="15.64" departDelay="0.00" arrival="170.60" arrivalLane="E2_0" arrivalPos="983.96" arrivalSpeed="15.51" duration="130.50" routeLength="1995.09" waitingTime="0.00" waitingCount="0" stopTime="0.00" timeLoss="2.89" rerouteNo="1" devices="tripinfo_WE.cav.9 routing_WE.cav.9" vType="cav" speedFactor="1.00" vaporized=""/>
    <tripinfo id="NS.cav.10" depart="51.40" departLane="E1_2" departPos="5.10" departSpeed="23.84" departDelay="0.00" arrival="170.70" arrivalLane="E3_0" arrivalPos="983.03" arrivalSpeed="23.23" duration="119.30" routeLength="1995.03" waitingTime="23.30" waitingCount="1" stopTime="0.00" timeLoss="35.62" rerouteNo="1" devices="tripinfo_NS.cav.10 routing_NS.cav.10" vType="cav" speedFactor="1.19" vaporized=""/>
    <tripinfo id="SN.cav.6" depart="34.70" departLane="-E3_1" departPos="5.10" departSpeed="22.01" departDelay="0.00" arrival="170.90" arrivalLane="-E1_0" arrivalPos="983.25" arrivalSpeed="22.01" duration="136.20" routeLength="1995.02" waitingTime="37.10" waitingCount="1" stopTime="0.00" timeLoss="45.53" rerouteNo="1" devices="tripinfo_SN.cav.6 routing_SN.cav.6" vType="cav" speedFactor="1.09" vaporized=""/>
    <tripinfo id="SN.cav.7" depart="41.50" departLane="-E3_2" departPos="5.10" departSpeed="21.82" departDelay="0.00" arrival="171.30" arrivalLane="-E1_0" arrivalPos="983.25" arrivalSpeed="21.82" duration="129.80" routeLength="1995.02" waitingTime="29.80" waitingCount="1" stopTime="0.00" timeLoss="38.29" rerouteNo="1" devices="tripinfo_SN.cav.7 routing_SN.cav.7" vType="cav" speedFactor="1.08" vaporized=""/>
    <tripinfo id="NS.cav.13" depart="65.40" departLane="E1_1" departPos="5.10" departSpeed="23.72" departDelay="0.00" arrival="172.90" arrivalLane="E3_0" arrivalPos="983.03" arrivalSpeed="23.43" duration="107.50" routeLength="1995.03" waitingTime="3.10" waitingCount="1" stopTime="0.00" timeLoss="23.36" rerouteNo="1" devices="tripinfo_NS.cav.13 routing_NS.cav.13" vType="cav" speedFactor="1.18" vaporized=""/>
    <tripinfo id="SN.cav.8" depart="46.90" departLane="-E3_2" departPos="5.10" departSpeed="23.14" departDelay="0.00" arrival="173.00" arrivalLane="-E1_1" arrivalPos="983.25" arrivalSpeed="22.61" duration="126.10" routeLength="1995.02" waitingTime="27.80" waitingCount="1" stopTime="0.00" timeLoss="39.84" rerouteNo="1" devices="tripinfo_SN.cav.8 routing_SN.cav.8" vType="cav" speedFactor="1.15" vaporized=""/>
    <tripinfo id="NE.cav.1" depart="39.50" departLane="E1_3" departPos="5.10" departSpeed="21.71" departDelay="0.00" arrival="173.40" arrivalLane="E2_1" arrivalPos="983.96" arrivalSpeed="16.88" duration="133.90" routeLength="1996.75" waitingTime="19.10" waitingCount="1" stopTime="0.00" timeLoss="27.92" rerouteNo="1" devices="tripinfo_NE.cav.1 routing_NE.cav.1" vType="cav" speedFactor="1.08" vaporized=""/>
    <tripinfo id="WE.cav.8" depart="38.70" departLane="E0_1" departPos="5.10" departSpeed="14.91" departDelay="0.00" arrival="175.10" arrivalLane="E2_0" arrivalPos="983.96" arrivalSpeed="14.91" duration="136.40" routeLength="1995.09" waitingTime="0.00" waitingCount="0" stopTime="0.00" timeLoss="2.60" rerouteNo="1" devices="tripinfo_WE.cav.8 routing_WE.cav.8" vType="cav" speedFactor="0.95" vaporized=""/>
    <tripinfo id="NW.cav.5" depart="41.00" departLane="E1_0" departPos="5.10" departSpeed="20.32" departDelay="0.00" arrival="175.60" arrivalLane="-E0_0" arrivalPos="983.27" arrivalSpeed="15.81" duration="134.60" routeLength="1970.87" waitingTime="15.60" waitingCount="1" stopTime="0.00" timeLoss="22.77" rerouteNo="1" devices="tripinfo_NW.cav.5 routing_NW.cav.5" vType="cav" speedFactor="1.01" vaporized=""/>
    <tripinfo id="SE.cav.3" depart="44.80" departLane="-E3_0" departPos="5.10" departSpeed="20.98" departDelay="0.00" arrival="176.80" arrivalLane="E2_0" arrivalPos="983.96" arrivalSpeed="15.82" duration="132.00" routeLength="1971.03" waitingTime="13.70" waitingCount="1" stopTime="0.00" timeLoss="23.74" rerouteNo="1" devices="tripinfo_SE.cav.3 routing_SE.cav.3" vType="cav" speedFactor="1.04" vaporized=""/>
    <tripinfo id="NS.cav.14" depart="68.70" departLane="E1_1" departPos="5.10" departSpeed="21.41" departDelay="0.00" arrival="177.40" arrivalLane="E3_0" arrivalPos="983.03" arrivalSpeed="21.40" duration="108.70" routeLength="1995.03" waitingTime="0.00" waitingCount="0" stopTime="0.00" timeLoss="15.46" rerouteNo="1" devices="tripinfo_NS.cav.14 routing_NS.cav.14" vType="cav" speedFactor="1.06" vaporized=""/>
    <tripinfo id="SW.cav.1" depart="7.90" departLane="-E3_3" departPos="5.10" departSpeed="20.33" departDelay="0.00" arrival="179.80" arrivalLane="-E0_0" arrivalPos="983.27" arrivalSpeed="15.81" duration="171.90" routeLength="1995.46" waitingTime="48.80" waitingCount="1" stopTime="0.00" timeLoss="58.84" rerouteNo="1" devices="tripinfo_SW.cav.1 routing_SW.cav.1" vType="cav" speedFactor="1.01" vaporized=""/>
    <tripinfo id="SN.cav.10" depart="55.30" departLane="-E3_2" departPos="5.10" departSpeed="18.07" departDelay="0.00" arrival="182.10" arrivalLane="-E1_0" arrivalPos="983.25" arrivalSpeed="18.07" duration="126.80" routeLength="1995.02" waitingTime="7.10" waitingCount="1" stopTime="0.00" timeLoss="16.30" rerouteNo="1" devices="tripinfo_SN.cav.10 routing_SN.cav.10" vType="cav" speedFactor="0.90" vaporized=""/>
    <tripinfo id="NS.cav.17" depart="78.30" departLane="E1_1" departPos="5.10" departSpeed="19.78" departDelay="0.00" arrival="182.50" arrivalLane="E3_0" arrivalPos="983.03" arrivalSpeed="19.78" duration="104.20" routeLength="1995.03" waitingTime="0.00" waitingCount="0" stopTime="0.00" timeLoss="3.24" rerouteNo="1" devices="tripinfo_NS.cav.17 routing_NS.cav.17" vType="cav" speedFactor="0.98" vaporized=""/>
    <tripinfo id="SE.cav.4" depart="46.50" departLane="-E3_0" departPos="5.10" departSpeed="18.93" departDelay="0.00" arrival="182.80" arrivalLane="E2_0" arrivalPos="983.96" arrivalSpeed="14.72" duration="136.30" routeLength="1971.03" waitingTime="8.20" waitingCount="1" stopTime="0.00" timeLoss="16.24" rerouteNo="1" devices="tripinfo_SE.cav.4 routing_SE.cav.4" vType="cav" speedFactor="0.94" vaporized=""/>
    <tripinfo id="SN.cav.12" depart="59.20" departLane="-E3_2" departPos="5.10" departSpeed="20.69" departDelay="0.00" arrival="183.40" arrivalLane="-E1_0" arrivalPos="983.25" arrivalSpeed="19.21" duration="124.20" routeLength="1995.02" waitingTime="7.70" waitingCount="2" stopTime="0.00" timeLoss="27.77" rerouteNo="1" devices="tripinfo_SN.cav.12 routing_SN.cav.12" vType="cav" speedFactor="1.03" vaporized=""/>
    <tripinfo id="NS.cav.20" depart="85.80" departLane="E1_2" departPos="5.10" departSpeed="24.50" departDelay="0.00" arrival="183.60" arrivalLane="E3_1" arrivalPos="983.03" arrivalSpeed="21.46" duration="97.80" routeLength="1995.03" waitingTime="0.00" waitingCount="0" stopTime="0.00" timeLoss="16.35" rerouteNo="1" devices="tripinfo_NS.cav.20 routing_NS.cav.20" vType="cav" speedFactor="1.22" vaporized=""/>
    <tripinfo id="SN.cav.9" depart="52.00" departLane="-E3_1" departPos="5.10" departSpeed="18.02" departDelay="0.00" arrival="183.80" arrivalLane="-E1_1" arrivalPos="983.25" arrivalSpeed="18.02" duration="131.80" routeLength="1995.02" waitingTime="12.50" waitingCount="1" stopTime="0.00" timeLoss="21.01" rerouteNo="1" devices="tripinfo_SN.cav.9 routing_SN.cav.9" vType="cav" speedFactor="0.90" vaporized=""/>
    <tripinfo id="NS.cav.6" depart="20.30" departLane="E1_1" departPos="5.10" departSpeed="16.57" departDelay="0.00" arrival="184.90" arrivalLane="E3_0" arrivalPos="983.03" arrivalSpeed="16.57" duration="164.60" routeLength="1995.03" waitingTime="37.50" waitingCount="1" stopTime="0.00" timeLoss="44.18" rerouteNo="1" devices="tripinfo_NS.cav.6 routing_NS.cav.6" vType="cav" speedFactor="0.82" vaporized=""/>
    <tripinfo id="NS.cav.16" depart="77.50" departLane="E1_2" departPos="5.10" departSpeed="23.67" departDelay="0.00" arrival="184.90" arrivalLane="E3_1" arrivalPos="983.03" arrivalSpeed="21.72" duration="107.40" routeLength="1995.03" waitingTime="0.00" waitingCount="0" stopTime="0.00" timeLoss="23.08" rerouteNo="1" devices="tripinfo_NS.cav.16 routing_NS.cav.16" vType="cav" speedFactor="1.18" vaporized=""/>
    <tripinfo id="SN.cav.13" depart="63.80" departLane="-E3_2" departPos="5.10" departSpeed="21.58" departDelay="0.00" arrival="185.00" arrivalLane="-E1_1" arrivalPos="983.25" arrivalSpeed="19.38" duration="121.20" routeLength="1995.02" waitingTime="7.50" waitingCount="2" stopTime="0.00" timeLoss="28.75" rerouteNo="1" devices="tripinfo_SN.cav.13 routing_SN.cav.13" vType="cav" speedFactor="1.07" vaporized=""/>
    <tripinfo id="SE.cav.5" depart="52.00" departLane="-E3_0" departPos="5.10" departSpeed="19.53" departDelay="0.00" arrival="185.20" arrivalLane="E2_0" arrivalPos="983.96" arrivalSpeed="15.09" duration="133.20" routeLength="1971.03" waitingTime="5.60" waitingCount="1" stopTime="0.00" timeLoss="16.85" rerouteNo="1" devices="tripinfo_SE.cav.5 routing_SE.cav.5" vType="cav" speedFactor="0.97" vaporized=""/>
    <tripinfo id="SW.cav.0" depart="1.90" departLane="-E3_3" departPos="5.10" departSpeed="17.87" departDelay="0.00" arrival="186.20" arrivalLane="-E0_0" arrivalPos="983.27" arrivalSpeed="13.90" duration="184.30" routeLength="1995.46" waitingTime="49.10" waitingCount="1" stopTime="0.00" timeLoss="55.64" rerouteNo="1" devices="tripinfo_SW.cav.0 routing_SW.cav.0" vType="cav" speedFactor="0.89" vaporized=""/>
    <tripinfo id="NS.cav.11" depart="53.60" departLane="E1_1" departPos="5.10" departSpeed="18.93" departDelay="0.00" arrival="186.30" arrivalLane="E3_0" arrivalPos="983.03" arrivalSpeed="17.74" duration="132.70" routeLength="1995.03" waitingTime="7.60" waitingCount="2" stopTime="0.00" timeLoss="27.27" rerouteNo="1" devices="tripinfo_NS.cav.11 routing_NS.cav.11" vType="cav" speedFactor="0.94" vaporized=""/>
    <tripinfo id="NS.cav.12" depart="63.80" departLane="E1_2" departPos="5.10" departSpeed="18.88" departDelay="0.00" arrival="187.80" arrivalLane="E3_0" arrivalPos="983.03" arrivalSpeed="17.91" duration="124.00" routeLength="1995.03" waitingTime="0.60" waitingCount="1" stopTime="0.00" timeLoss="18.27" rerouteNo="1" devices="tripinfo_NS.cav.12 routing_NS.cav.12" vType="cav" speedFactor="0.94" vaporized=""/>
    <tripinfo id="SN.cav.14" depart="68.40" departLane="-E3_1" departPos="5.10" departSpeed="17.87" departDelay="0.00" arrival="188.40" arrivalLane="-E1_1" arrivalPos="983.25" arrivalSpeed="17.85" duration="120.00" routeLength="1995.02" waitingTime="0.00" waitingCount="0" stopTime="0.00" timeLoss="8.38" rerouteNo="1" devices="tripinfo_SN.cav.14 routing_SN.cav.14" vType="cav" speedFactor="0.89" vaporized=""/>
    <tripinfo id="SN.cav.11" depart="58.70" departLane="-E3_1" departPos="5.10" departSpeed="17.11" departDelay="0.00" arrival="188.80" arrivalLane="-E1_0" arrivalPos="983.25" arrivalSpeed="17.11" duration="130.10" routeLength="1995.02" waitingTime="0.90" waitingCount="1" stopTime="0.00" timeLoss="13.40" rerouteNo="1" devices="tripinfo_SN.cav.11 routing_SN.cav.11" vType="cav" speedFactor="0.85" vaporized=""/>
    <tripinfo id="SN.cav.17" depart="77.40" departLane="-E3_2" departPos="5.10" departSpeed="20.93" departDelay="0.00" arrival="189.70" arrivalLane="-E1_1" arrivalPos="983.25" arrivalSpeed="19.11" duration="112.30" routeLength="1995.02" waitingTime="0.00" waitingCount="0" stopTime="0.00" timeLoss="16.99" rerouteNo="1" devices="tripinfo_SN.cav.17 routing_SN.cav.17" vType="cav" speedFactor="1.04" vaporized=""/>
    <tripinfo id="NE.cav.0" depart="37.40" departLane="E1_3" departPos="5.10" departSpeed="17.41" departDelay="0.00" arrival="190.40" arrivalLane="E2_0" arrivalPos="983.96" arrivalSpeed="13.54" duration="153.00" routeLength="1996.75" waitingTime="13.20" waitingCount="1" stopTime="0.00" timeLoss="20.82" rerouteNo="1" devices="tripinfo_NE.cav.0 routing_NE.cav.0" vType="cav" speedFactor="0.87" vaporized=""/>
    <tripinfo id="SN.cav.15" depart="71.80" departLane="-E3_2" departPos="5.10" departSpeed="18.43" departDelay="0.00" arrival="190.50" arrivalLane="-E1_0" arrivalPos="983.25" arrivalSpeed="17.90" duration="118.70" routeLength="1995.02" waitingTime="0.00" waitingCount="0" stopTime="0.00" timeLoss="10.37" rerouteNo="1" devices="tripinfo_SN.cav.15 routing_SN.cav.15" vType="cav" speedFactor="0.92" vaporized=""/>
    <tripinfo id="SN.cav.18" depart="78.90" departLane="-E3_1" departPos="5.10" departSpeed="20.98" departDelay="0.00" arrival="191.00" arrivalLane="-E1_1" arrivalPos="983.25" arrivalSpeed="19.30" duration="112.10" routeLength="1995.02" waitingTime="0.00" waitingCount="0" stopTime="0.00" timeLoss="16.98" rerouteNo="1" devices="tripinfo_SN.cav.18 routing_SN.cav.18" vType="cav" speedFactor="1.04" vaporized=""/>