<?xml version="1.0" encoding="UTF-8"?>

<!-- generated on 2022-07-02 18:30:35 by Eclipse SUMO GUI Version 1.13.0
<configuration xmlns:xsi="http://www.w3.org/2001/XMLSchema-instance" xsi:noNamespaceSchemaLocation="http://sumo.dlr.de/xsd/sumoConfiguration.xsd">

    <input>
        <net-file value="data/Eastway-Central.net.xml"/>
        <route-files value="data/cav100.rou.xml"/>
        <additional-files value="data/Eastway-Central.add.xml"/>
    </input>

    <output>
        <tripinfo-output value="tripinfo.xml"/>
    </output>

    <time>
        <step-length value="0.1"/>
    </time>

    <report>
        <verbose value="true"/>
        <log value="logfile.xml"/>
        <duration-log.statistics value="true"/>
    </report>

    <traci_server>
        <remote-port value="62918"/>
    </traci_server>

    <gui_only>
        <tracker-interval value="0.1"/>
    </gui_only>

</configuration>
-->

<tripinfos xmlns:xsi="http://www.w3.org/2001/XMLSchema-instance" xsi:noNamespaceSchemaLocation="http://sumo.dlr.de/xsd/tripinfo_file.xsd">
    <tripinfo id="SN.cav.0" depart="12.60" departLane="-E3_1" departPos="5.10" departSpeed="22.59" departDelay="0.00" arrival="149.30" arrivalLane="-E1_0" arrivalPos="1483.25" arrivalSpeed="22.59" duration="136.70" routeLength="2995.02" waitingTime="0.00" waitingCount="0" stopTime="0.00" timeLoss="4.14" rerouteNo="1" devices="tripinfo_SN.cav.0 routing_SN.cav.0" vType="cav" speedFactor="1.12" vaporized=""/>
    <tripinfo id="BNS.0" depart="0.00" departLane="E1_1" departPos="12.10" departSpeed="20.12" departDelay="0.00" arrival="154.40" arrivalLane="E3_1" arrivalPos="1483.04" arrivalSpeed="20.12" duration="154.40" routeLength="2988.02" waitingTime="0.00" waitingCount="0" stopTime="0.00" timeLoss="5.81" rerouteNo="1" devices="tripinfo_BNS.0 routing_BNS.0" vType="bus" speedFactor="1.00" vaporized=""/>
    <tripinfo id="BSN.0" depart="0.00" departLane="-E3_1" departPos="12.10" departSpeed="20.12" departDelay="0.00" arrival="154.90" arrivalLane="-E1_0" arrivalPos="1483.25" arrivalSpeed="20.10" duration="154.90" routeLength="2988.02" waitingTime="0.00" waitingCount="0" stopTime="0.00" timeLoss="6.35" rerouteNo="1" devices="tripinfo_BSN.0 routing_BSN.0" vType="bus" speedFactor="1.00" vaporized=""/>
    <tripinfo id="NS.cav.0" depart="3.00" departLane="E1_2" departPos="5.10" departSpeed="21.78" departDelay="0.00" arrival="154.90" arrivalLane="E3_0" arrivalPos="1483.04" arrivalSpeed="20.45" duration="151.90" routeLength="2995.02" waitingTime="0.00" waitingCount="0" stopTime="0.00" timeLoss="14.40" rerouteNo="1" devices="tripinfo_NS.cav.0 routing_NS.cav.0" vType="cav" speedFactor="1.08" vaporized=""/>
    <tripinfo id="NS.cav.3" depart="10.30" departLane="E1_1" departPos="5.10" departSpeed="21.94" departDelay="0.00" arrival="157.00" arrivalLane="E3_1" arrivalPos="1483.04" arrivalSpeed="21.40" duration="146.70" routeLength="2995.02" waitingTime="0.00" waitingCount="0" stopTime="0.00" timeLoss="10.17" rerouteNo="1" devices="tripinfo_NS.cav.3 routing_NS.cav.3" vType="cav" speedFactor="1.09" vaporized=""/>
    <tripinfo id="NS.cav.4" depart="11.70" departLane="E1_2" departPos="5.10" departSpeed="21.07" departDelay="0.00" arrival="157.90" arrivalLane="E3_0" arrivalPos="1483.04" arrivalSpeed="20.85" duration="146.20" routeLength="2995.02" waitingTime="0.00" waitingCount="0" stopTime="0.00" timeLoss="3.97" rerouteNo="1" devices="tripinfo_NS.cav.4 routing_NS.cav.4" vType="cav" speedFactor="1.05" vaporized=""/>
    <tripinfo id="NS.cav.9" depart="31.80" departLane="E1_1" departPos="5.10" departSpeed="22.18" departDelay="0.00" arrival="170.20" arrivalLane="E3_0" arrivalPos="1483.04" arrivalSpeed="22.18" duration="138.40" routeLength="2995.02" waitingTime="0.00" waitingCount="0" stopTime="0.00" timeLoss="3.29" rerouteNo="1" devices="tripinfo_NS.cav.9 routing_NS.cav.9" vType="cav" speedFactor="1.10" vaporized=""/>
    <tripinfo id="NW.cav.0" depart="18.00" departLane="E1_0" departPos="5.10" departSpeed="23.30" departDelay="0.00" arrival="173.20" arrivalLane="-E0_0" arrivalPos="1483.25" arrivalSpeed="18.13" duration="155.20" routeLength="2970.85" waitingTime="0.00" waitingCount="0" stopTime="0.00" timeLoss="8.67" rerouteNo="1" devices="tripinfo_NW.cav.0 routing_NW.cav.0" vType="cav" speedFactor="1.16" vaporized=""/>
    <tripinfo id="SN.cav.4" depart="28.60" departLane="-E3_1" departPos="5.10" departSpeed="23.19" departDelay="0.00" arrival="173.30" arrivalLane="-E1_0" arrivalPos="1483.25" arrivalSpeed="23.58" duration="144.70" routeLength="2995.02" waitingTime="0.00" waitingCount="0" stopTime="0.00" timeLoss="17.58" rerouteNo="1" devices="tripinfo_SN.cav.4 routing_SN.cav.4" vType="cav" speedFactor="1.17" vaporized=""/>
    <tripinfo id="NS.cav.1" depart="6.90" departLane="E1_1" departPos="5.10" departSpeed="17.83" departDelay="0.00" arrival="175.80" arrivalLane="E3_0" arrivalPos="1483.04" arrivalSpeed="17.82" duration="168.90" routeLength="2995.02" waitingTime="0.00" waitingCount="0" stopTime="0.00" timeLoss="0.83" rerouteNo="1" devices="tripinfo_NS.cav.1 routing_NS.cav.1" vType="cav" speedFactor="0.89" vaporized=""/>
    <tripinfo id="SE.cav.0" depart="6.60" departLane="-E3_0" departPos="5.10" departSpeed="20.73" departDelay="0.00" arrival="176.80" arrivalLane="E2_0" arrivalPos="1483.93" arrivalSpeed="16.12" duration="170.20" routeLength="2971.00" waitingTime="0.00" waitingCount="0" stopTime="0.00" timeLoss="5.44" rerouteNo="1" devices="tripinfo_SE.cav.0 routing_SE.cav.0" vType="cav" speedFactor="1.03" vaporized=""/>
    <tripinfo id="SN.cav.3" depart="28.20" departLane="-E3_2" departPos="5.10" departSpeed="20.22" departDelay="0.00" arrival="177.10" arrivalLane="-E1_0" arrivalPos="1483.25" arrivalSpeed="20.20" duration="148.90" routeLength="2995.02" waitingTime="0.00" waitingCount="0" stopTime="0.00" timeLoss="0.74" rerouteNo="1" devices="tripinfo_SN.cav.3 routing_SN.cav.3" vType="cav" speedFactor="1.01" vaporized=""/>
    <tripinfo id="NS.cav.8" depart="29.30" departLane="E1_1" departPos="5.10" departSpeed="20.52" departDelay="0.00" arrival="179.10" arrivalLane="E3_0" arrivalPos="1483.04" arrivalSpeed="20.33" duration="149.80" routeLength="2995.02" waitingTime="0.00" waitingCount="0" stopTime="0.00" timeLoss="3.73" rerouteNo="1" devices="tripinfo_NS.cav.8 routing_NS.cav.8" vType="cav" speedFactor="1.02" vaporized=""/>
    <tripinfo id="SN.cav.6" depart="40.30" departLane="-E3_1" departPos="5.10" departSpeed="21.89" departDelay="0.00" arrival="181.20" arrivalLane="-E1_1" arrivalPos="1483.25" arrivalSpeed="21.89" duration="140.90" routeLength="2995.02" waitingTime="0.00" waitingCount="0" stopTime="0.00" timeLoss="4.07" rerouteNo="1" devices="tripinfo_SN.cav.6 routing_SN.cav.6" vType="cav" speedFactor="1.09" vaporized=""/>
    <tripinfo id="SN.cav.5" depart="28.70" departLane="-E3_2" departPos="5.10" departSpeed="14.10" departDelay="0.00" arrival="182.40" arrivalLane="-E1_0" arrivalPos="1483.25" arrivalSpeed="20.00" duration="153.70" routeLength="2995.02" waitingTime="0.00" waitingCount="0" stopTime="0.00" timeLoss="3.99" rerouteNo="1" devices="tripinfo_SN.cav.5 routing_SN.cav.5" vType="cav" speedFactor="0.99" vaporized=""/>
    <tripinfo id="NS.cav.2" depart="8.90" departLane="E1_2" departPos="5.10" departSpeed="17.24" departDelay="0.00" arrival="184.70" arrivalLane="E3_0" arrivalPos="1483.04" arrivalSpeed="17.24" duration="175.80" routeLength="2995.02" waitingTime="0.00" waitingCount="0" stopTime="0.00" timeLoss="2.06" rerouteNo="1" devices="tripinfo_NS.cav.2 routing_NS.cav.2" vType="cav" speedFactor="0.86" vaporized=""/>
    <tripinfo id="WN.cav.1" depart="27.20" departLane="E0_2" departPos="5.10" departSpeed="18.07" departDelay="0.00" arrival="186.30" arrivalLane="-E1_1" arrivalPos="1483.25" arrivalSpeed="23.19" duration="159.10" routeLength="2994.72" waitingTime="1.40" waitingCount="1" stopTime="0.00" timeLoss="10.97" rerouteNo="1" devices="tripinfo_WN.cav.1 routing_WN.cav.1" vType="cav" speedFactor="1.15" vaporized=""/>
    <tripinfo id="NS.cav.5" depart="16.40" departLane="E1_1" departPos="5.10" departSpeed="18.94" departDelay="0.00" arrival="186.90" arrivalLane="E3_0" arrivalPos="1483.04" arrivalSpeed="18.37" duration="170.50" routeLength="2995.02" waitingTime="0.00" waitingCount="0" stopTime="0.00" timeLoss="12.35" rerouteNo="1" devices="tripinfo_NS.cav.5 routing_NS.cav.5" vType="cav" speedFactor="0.94" vaporized=""/>
    <tripinfo id="NS.cav.7" depart="27.10" departLane="E1_2" departPos="5.10" departSpeed="18.74" departDelay="0.00" arrival="190.10" arrivalLane="E3_0" arrivalPos="1483.04" arrivalSpeed="18.61" duration="163.00" routeLength="2995.02" waitingTime="0.00" waitingCount="0" stopTime="0.00" timeLoss="3.14" rerouteNo="1" devices="tripinfo_NS.cav.7 routing_NS.cav.7" vType="cav" speedFactor="0.93" vaporized=""/>
    <tripinfo id="SN.cav.1" depart="25.80" departLane="-E3_2" departPos="5.10" departSpeed="18.45" departDelay="0.00" arrival="190.80" arrivalLane="-E1_0" arrivalPos="1483.25" arrivalSpeed="18.45" duration="165.00" routeLength="2995.02" waitingTime="0.00" waitingCount="0" stopTime="0.00" timeLoss="2.67" rerouteNo="1" devices="tripinfo_SN.cav.1 routing_SN.cav.1" vType="cav" speedFactor="0.92" vaporized=""/>
    <tripinfo id="NS.cav.6" depart="23.60" departLane="E1_1" departPos="5.10" departSpeed="17.90" departDelay="0.00" arrival="193.90" arrivalLane="E3_0" arrivalPos="1483.04" arrivalSpeed="17.86" duration="170.30" routeLength="2995.02" waitingTime="0.00" waitingCount="0" stopTime="0.00" timeLoss="2.95" rerouteNo="1" devices="tripinfo_NS.cav.6 routing_NS.cav.6" vType="cav" speedFactor="0.89" vaporized=""/>
    <tripinfo id="SN.cav.2" depart="26.40" departLane="-E3_1" departPos="5.10" departSpeed="19.09" departDelay="0.00" arrival="193.90" arrivalLane="-E1_0" arrivalPos="1483.25" arrivalSpeed="18.95" duration="167.50" routeLength="2995.02" waitingTime="0.00" waitingCount="0" stopTime="0.00" timeLoss="10.57" rerouteNo="1" devices="tripinfo_SN.cav.2 routing_SN.cav.2" vType="cav" speedFactor="0.95" vaporized=""/>
    <tripinfo id="ES.cav.0" depart="33.50" departLane="-E2_2" departPos="5.10" departSpeed="16.13" departDelay="0.00" arrival="201.80" arrivalLane="E3_0" arrivalPos="1483.04" arrivalSpeed="20.73" duration="168.30" routeLength="2995.50" waitingTime="0.00" waitingCount="0" stopTime="0.00" timeLoss="2.28" rerouteNo="1" devices="tripinfo_ES.cav.0 routing_ES.cav.0" vType="cav" speedFactor="1.03" vaporized=""/>
    <tripinfo id="SE.cav.1" depart="17.30" departLane="-E3_0" departPos="5.10" departSpeed="18.84" departDelay="0.00" arrival="202.80" arrivalLane="E2_0" arrivalPos="1483.93" arrivalSpeed="14.65" duration="185.50" routeLength="2971.00" waitingTime="0.00" waitingCount="0" stopTime="0.00" timeLoss="4.32" rerouteNo="1" devices="tripinfo_SE.cav.1 routing_SE.cav.1" vType="cav" speedFactor="0.94" vaporized=""/>
    <tripinfo id="SE.cav.2" depart="26.60" departLane="-E3_0" departPos="5.10" departSpeed="22.77" departDelay="0.00" arrival="204.70" arrivalLane="E2_0" arrivalPos="1483.93" arrivalSpeed="16.62" duration="178.10" routeLength="2971.00" waitingTime="0.00" waitingCount="0" stopTime="0.00" timeLoss="28.16" rerouteNo="1" devices="tripinfo_SE.cav.2 routing_SE.cav.2" vType="cav" speedFactor="1.13" vaporized=""/>
    <tripinfo id="SE.cav.4" depart="35.30" departLane="-E3_0" departPos="5.10" departSpeed="21.97" departDelay="0.00" arrival="208.00" arrivalLane="E2_0" arrivalPos="1483.93" arrivalSpeed="16.99" duration="172.70" routeLength="2971.00" waitingTime="0.00" waitingCount="0" stopTime="0.00" timeLoss="17.34" rerouteNo="1" devices="tripinfo_SE.cav.4 routing_SE.cav.4" vType="cav" speedFactor="1.09" vaporized=""/>
    <tripinfo id="WN.cav.0" depart="15.30" departLane="E0_2" departPos="5.10" departSpeed="13.75" departDelay="0.00" arrival="213.90" arrivalLane="-E1_0" arrivalPos="1483.25" arrivalSpeed="17.67" duration="198.60" routeLength="2994.72" waitingTime="0.00" waitingCount="0" stopTime="0.00" timeLoss="3.93" rerouteNo="1" devices="tripinfo_WN.cav.0 routing_WN.cav.0" vType="cav" speedFactor="0.88" vaporized=""/>
    <tripinfo id="ES.cav.1" depart="33.70" departLane="-E2_3" departPos="5.10" departSpeed="14.98" departDelay="0.00" arrival="215.20" arrivalLane="E3_0" arrivalPos="1483.04" arrivalSpeed="19.26" duration="181.50" routeLength="2995.50" waitingTime="0.00" waitingCount="0" stopTime="0.00" timeLoss="2.83" rerouteNo="1" devices="tripinfo_ES.cav.1 routing_ES.cav.1" vType="cav" speedFactor="0.96" vaporized=""/>
    <tripinfo id="SE.cav.3" depart="30.30" departLane="-E3_0" departPos="5.10" departSpeed="19.58" departDelay="0.00" arrival="219.70" arrivalLane="E2_0" arrivalPos="1483.93" arrivalSpeed="15.23" duration="189.40" routeLength="2971.00" waitingTime="0.00" waitingCount="0" stopTime="0.00" timeLoss="14.95" rerouteNo="1" devices="tripinfo_SE.cav.3 routing_SE.cav.3" vType="cav" speedFactor="0.97" vaporized=""/>
    <tripinfo id="WS.cav.0" depart="1.20" departLane="E0_0" departPos="5.10" departSpeed="14.68" departDelay="0.00" arrival="225.50" arrivalLane="E3_0" arrivalPos="1483.04" arrivalSpeed="18.88" duration="224.30" routeLength="2974.35" waitingTime="31.60" waitingCount="1" stopTime="0.00" timeLoss="43.27" rerouteNo="1" devices="tripinfo_WS.cav.0 routing_WS.cav.0" vType="cav" speedFactor="0.94" vaporized=""/>
    <tripinfo id="WS.cav.1" depart="47.90" departLane="E0_0" departPos="5.10" departSpeed="15.91" departDelay="0.00" arrival="229.70" arrivalLane="E3_0" arrivalPos="1483.04" arrivalSpeed="20.40" duration="181.80" routeLength="2974.35" waitingTime="0.00" waitingCount="0" stopTime="0.00" timeLoss="14.77" rerouteNo="1" devices="tripinfo_WS.cav.1 routing_WS.cav.1" vType="cav" speedFactor="1.02" vaporized=""/>
    <tripinfo id="WE.cav.6" depart="27.20" departLane="E0_0" departPos="5.10" departSpeed="18.45" departDelay="0.00" arrival="231.20" arrivalLane="E2_0" arrivalPos="1483.93" arrivalSpeed="18.44" duration="204.00" routeLength="2995.06" waitingTime="14.00" waitingCount="1" stopTime="0.00" timeLoss="41.61" rerouteNo="1" devices="tripinfo_WE.cav.6 routing_WE.cav.6" vType="cav" speedFactor="1.18" vaporized=""/>
    <tripinfo id="SN.cav.7" depart="47.80" departLane="-E3_1" departPos="5.10" departSpeed="23.52" departDelay="0.00" arrival="234.60" arrivalLane="-E1_0" arrivalPos="1483.25" arrivalSpeed="23.52" duration="186.80" routeLength="2995.02" waitingTime="47.30" waitingCount="1" stopTime="0.00" timeLoss="59.40" rerouteNo="1" devices="tripinfo_SN.cav.7 routing_SN.cav.7" vType="cav" speedFactor="1.17" vaporized=""/>
    <tripinfo id="WE.cav.0" depart="0.00" departLane="E0_0" departPos="5.10" departSpeed="16.59" departDelay="0.00" arrival="234.80" arrivalLane="E2_0" arrivalPos="1483.93" arrivalSpeed="16.56" duration="234.80" routeLength="2995.06" waitingTime="45.50" waitingCount="1" stopTime="0.00" timeLoss="54.21" rerouteNo="1" devices="tripinfo_WE.cav.0 routing_WE.cav.0" vType="cav" speedFactor="1.06" vaporized=""/>
    <tripinfo id="NW.cav.1" depart="42.70" departLane="E1_0" departPos="5.10" departSpeed="18.12" departDelay="0.00" arrival="235.20" arrivalLane="-E0_0" arrivalPos="1483.25" arrivalSpeed="14.09" duration="192.50" routeLength="2970.85" waitingTime="0.00" waitingCount="0" stopTime="0.00" timeLoss="4.08" rerouteNo="1" devices="tripinfo_NW.cav.1 routing_NW.cav.1" vType="cav" speedFactor="0.90" vaporized=""/>
    <tripinfo id="EW.cav.1" depart="11.00" departLane="-E2_1" departPos="5.10" departSpeed="16.06" departDelay="0.00" arrival="236.80" arrivalLane="-E0_1" arrivalPos="1483.25" arrivalSpeed="16.06" duration="225.80" routeLength="2995.04" waitingTime="30.50" waitingCount="1" stopTime="0.00" timeLoss="39.32" rerouteNo="1" devices="tripinfo_EW.cav.1 routing_EW.cav.1" vType="cav" speedFactor="1.03" vaporized=""/>
    <tripinfo id="EW.cav.0" depart="6.80" departLane="-E2_0" departPos="5.10" departSpeed="16.37" departDelay="0.00" arrival="237.50" arrivalLane="-E0_0" arrivalPos="1483.25" arrivalSpeed="15.96" duration="230.70" routeLength="2995.04" waitingTime="37.50" waitingCount="1" stopTime="0.00" timeLoss="47.67" rerouteNo="1" devices="tripinfo_EW.cav.0 routing_EW.cav.0" vType="cav" speedFactor="1.05" vaporized=""/>
    <tripinfo id="NS.cav.13" depart="48.10" departLane="E1_2" departPos="5.10" departSpeed="22.05" departDelay="0.00" arrival="238.70" arrivalLane="E3_0" arrivalPos="1483.04" arrivalSpeed="22.05" duration="190.60" routeLength="2995.02" waitingTime="43.10" waitingCount="1" stopTime="0.00" timeLoss="54.72" rerouteNo="1" devices="tripinfo_NS.cav.13 routing_NS.cav.13" vType="cav" speedFactor="1.10" vaporized=""/>
    <tripinfo id="SN.cav.9" depart="52.20" departLane="-E3_2" departPos="5.10" departSpeed="22.99" departDelay="0.00" arrival="239.10" arrivalLane="-E1_0" arrivalPos="1483.25" arrivalSpeed="22.95" duration="186.90" routeLength="2995.02" waitingTime="23.00" waitingCount="1" stopTime="0.00" timeLoss="56.52" rerouteNo="1" devices="tripinfo_SN.cav.9 routing_SN.cav.9" vType="cav" speedFactor="1.14" vaporized=""/>
    <tripinfo id="WE.cav.1" depart="2.20" departLane="E0_1" departPos="5.10" departSpeed="15.81" departDelay="0.00" arrival="240.10" arrivalLane="E2_0" arrivalPos="1483.93" arrivalSpeed="15.81" duration="237.90" routeLength="2995.06" waitingTime="38.10" waitingCount="1" stopTime="0.00" timeLoss="48.43" rerouteNo="1" devices="tripinfo_WE.cav.1 routing_WE.cav.1" vType="cav" speedFactor="1.01" vaporized=""/>
    <tripinfo id="EW.cav.3" depart="20.30" departLane="-E2_1" departPos="5.10" departSpeed="15.93" departDelay="0.00" arrival="242.10" arrivalLane="-E0_0" arrivalPos="1483.25" arrivalSpeed="15.92" duration="221.80" routeLength="2995.04" waitingTime="20.60" waitingCount="1" stopTime="0.00" timeLoss="33.77" rerouteNo="1" devices="tripinfo_EW.cav.3 routing_EW.cav.3" vType="cav" speedFactor="1.02" vaporized=""/>
    <tripinfo id="NS.cav.15" depart="53.80" departLane="E1_2" departPos="5.10" departSpeed="21.78" departDelay="0.00" arrival="242.60" arrivalLane="E3_0" arrivalPos="1483.04" arrivalSpeed="21.71" duration="188.80" routeLength="2995.02" waitingTime="38.60" waitingCount="1" stopTime="0.00" timeLoss="51.28" rerouteNo="1" devices="tripinfo_NS.cav.15 routing_NS.cav.15" vType="cav" speedFactor="1.08" vaporized=""/>
    <tripinfo id="NS.cav.16" depart="54.10" departLane="E1_1" departPos="5.10" departSpeed="22.52" departDelay="0.00" arrival="243.60" arrivalLane="E3_1" arrivalPos="1483.04" arrivalSpeed="22.52" duration="189.50" routeLength="2995.02" waitingTime="37.70" waitingCount="1" stopTime="0.00" timeLoss="56.45" rerouteNo="1" devices="tripinfo_NS.cav.16 routing_NS.cav.16" vType="cav" speedFactor="1.12" vaporized=""/>
    <tripinfo id="EW.cav.2" depart="13.90" departLane="-E2_0" departPos="5.10" departSpeed="15.51" departDelay="0.00" arrival="244.50" arrivalLane="-E0_0" arrivalPos="1483.25" arrivalSpeed="15.31" duration="230.60" routeLength="2995.04" waitingTime="25.00" waitingCount="1" stopTime="0.00" timeLoss="37.48" rerouteNo="1" devices="tripinfo_EW.cav.2 routing_EW.cav.2" vType="cav" speedFactor="0.99" vaporized=""/>
    <tripinfo id="SN.cav.8" depart="50.30" departLane="-E3_1" departPos="5.10" departSpeed="20.04" departDelay="0.00" arrival="246.20" arrivalLane="-E1_0" arrivalPos="1483.25" arrivalSpeed="20.04" duration="195.90" routeLength="2995.02" waitingTime="35.00" waitingCount="1" stopTime="0.00" timeLoss="46.43" rerouteNo="1" devices="tripinfo_SN.cav.8 routing_SN.cav.8" vType="cav" speedFactor="1.00" vaporized=""/>
    <tripinfo id="NS.cav.10" depart="41.40" departLane="E1_1" departPos="5.10" departSpeed="20.07" departDelay="0.00" arrival="247.00" arrivalLane="E3_0" arrivalPos="1483.04" arrivalSpeed="20.04" duration="205.60" routeLength="2995.02" waitingTime="44.90" waitingCount="1" stopTime="0.00" timeLoss="56.27" rerouteNo="1" devices="tripinfo_NS.cav.10 routing_NS.cav.10" vType="cav" speedFactor="1.00" vaporized=""/>
    <tripinfo id="EW.cav.4" depart="22.30" departLane="-E2_0" departPos="5.10" departSpeed="15.81" departDelay="0.00" arrival="247.50" arrivalLane="-E0_0" arrivalPos="1483.25" arrivalSpeed="15.70" duration="225.20" routeLength="2995.04" waitingTime="18.10" waitingCount="1" stopTime="0.00" timeLoss="35.68" rerouteNo="1" devices="tripinfo_EW.cav.4 routing_EW.cav.4" vType="cav" speedFactor="1.01" vaporized=""/>
    <tripinfo id="SN.cav.11" depart="54.60" departLane="-E3_2" departPos="5.10" departSpeed="20.44" departDelay="0.00" arrival="248.00" arrivalLane="-E1_1" arrivalPos="1483.25" arrivalSpeed="20.44" duration="193.40" routeLength="2995.02" waitingTime="22.30" waitingCount="1" stopTime="0.00" timeLoss="46.86" rerouteNo="1" devices="tripinfo_SN.cav.11 routing_SN.cav.11" vType="cav" speedFactor="1.02" vaporized=""/>
    <tripinfo id="SE.cav.5" depart="56.20" departLane="-E3_0" departPos="5.10" departSpeed="18.86" departDelay="0.00" arrival="249.20" arrivalLane="E2_0" arrivalPos="1483.93" arrivalSpeed="14.67" duration="193.00" routeLength="2971.00" waitingTime="0.00" waitingCount="0" stopTime="0.00" timeLoss="12.01" rerouteNo="1" devices="tripinfo_SE.cav.5 routing_SE.cav.5" vType="cav" speedFactor="0.94" vaporized=""/>
    <tripinfo id="SN.cav.10" depart="52.80" departLane="-E3_1" departPos="5.10" departSpeed="20.59" departDelay="0.00" arrival="249.30" arrivalLane="-E1_0" arrivalPos="1483.25" arrivalSpeed="20.42" duration="196.50" routeLength="2995.02" waitingTime="22.20" waitingCount="1" stopTime="0.00" timeLoss="51.00" rerouteNo="1" devices="tripinfo_SN.cav.10 routing_SN.cav.10" vType="cav" speedFactor="1.02" vaporized=""/>
    <tripinfo id="NS.cav.14" depart="48.40" departLane="E1_1" departPos="5.10" departSpeed="19.79" departDelay="0.00" arrival="250.10" arrivalLane="E3_0" arrivalPos="1483.04" arrivalSpeed="20.05" duration="201.70" routeLength="2995.02" waitingTime="37.90" waitingCount="1" stopTime="0.00" timeLoss="53.32" rerouteNo="1" devices="tripinfo_NS.cav.14 routing_NS.cav.14" vType="cav" speedFactor="1.00" vaporized=""/>
    <tripinfo id="SN.cav.13" depart="62.80" departLane="-E3_1" departPos="5.10" departSpeed="20.58" departDelay="0.00" arrival="251.90" arrivalLane="-E1_1" arrivalPos="1483.25" arrivalSpeed="20.52" duration="189.10" routeLength="2995.02" waitingTime="19.40" waitingCount="1" stopTime="0.00" timeLoss="43.54" rerouteNo="1" devices="tripinfo_SN.cav.13 routing_SN.cav.13" vType="cav" speedFactor="1.02" vaporized=""/>
    <tripinfo id="SN.cav.12" depart="62.70" departLane="-E3_2" departPos="5.10" departSpeed="20.56" departDelay="0.00" arrival="252.20" arrivalLane="-E1_0" arrivalPos="1483.25" arrivalSpeed="20.36" duration="189.50" routeLength="2995.02" waitingTime="19.10" waitingCount="1" stopTime="0.00" timeLoss="43.77" rerouteNo="1" devices="tripinfo_SN.cav.12 routing_SN.cav.12" vType="cav" speedFactor="1.02" vaporized=""/>
    <tripinfo id="WE.cav.3" depart="14.60" departLane="E0_1" departPos="5.10" departSpeed="14.50" departDelay="0.00" arrival="254.20" arrivalLane="E2_0" arrivalPos="1483.93" arrivalSpeed="14.50" duration="239.60" routeLength="2995.06" waitingTime="13.50" waitingCount="1" stopTime="0.00" timeLoss="33.11" rerouteNo="1" devices="tripinfo_WE.cav.3 routing_WE.cav.3" vType="cav" speedFactor="0.93" vaporized=""/>
    <tripinfo id="SN.cav.15" depart="73.10" departLane="-E3_1" departPos="5.10" departSpeed="20.27" departDelay="0.00" arrival="255.60" arrivalLane="-E1_1" arrivalPos="1483.25" arrivalSpeed="20.20" duration="182.50" routeLength="2995.02" waitingTime="15.30" waitingCount="1" stopTime="0.00" timeLoss="34.65" rerouteNo="1" devices="tripinfo_SN.cav.15 routing_SN.cav.15" vType="cav" speedFactor="1.01" vaporized=""/>
    <tripinfo id="SN.cav.14" depart="69.10" departLane="-E3_2" departPos="5.10" departSpeed="19.82" departDelay="0.00" arrival="255.70" arrivalLane="-E1_0" arrivalPos="1483.25" arrivalSpeed="19.74" duration="186.60" routeLength="2995.02" waitingTime="14.40" waitingCount="1" stopTime="0.00" timeLoss="35.40" rerouteNo="1" devices="tripinfo_SN.cav.14 routing_SN.cav.14" vType="cav" speedFactor="0.98" vaporized=""/>
    <tripinfo id="SN.cav.17" depart="79.30" departLane="-E3_1" departPos="5.10" departSpeed="20.98" departDelay="0.00" arrival="258.10" arrivalLane="-E1_1" arrivalPos="1483.25" arrivalSpeed="20.61" duration="178.80" routeLength="2995.02" waitingTime="6.30" waitingCount="2" stopTime="0.00" timeLoss="36.02" rerouteNo="1" devices="tripinfo_SN.cav.17 routing_SN.cav.17" vType="cav" speedFactor="1.04" vaporized=""/>
    <tripinfo id="SN.cav.16" depart="79.20" departLane="-E3_2" departPos="5.10" departSpeed="20.15" departDelay="0.00" arrival="258.40" arrivalLane="-E1_0" arrivalPos="1483.25" arrivalSpeed="19.91" duration="179.20" routeLength="2995.02" waitingTime="7.10" waitingCount="2" stopTime="0.00" timeLoss="30.59" rerouteNo="1" devices="tripinfo_SN.cav.16 routing_SN.cav.16" vType="cav" speedFactor="1.00" vaporized=""/>
    <tripinfo id="NS.cav.18" depart="69.40" departLane="E1_1" departPos="5.10" departSpeed="20.77" departDelay="0.00" arrival="259.30" arrivalLane="E3_1" arrivalPos="1483.04" arrivalSpeed="20.77" duration="189.90" routeLength="2995.02" waitingTime="16.00" waitingCount="1" stopTime="0.00" timeLoss="45.71" rerouteNo="1" devices="tripinfo_NS.cav.18 routing_NS.cav.18" vType="cav" speedFactor="1.03" vaporized=""/>
    <tripinfo id="SW.cav.1" depart="22.80" departLane="-E3_3" departPos="5.10" departSpeed="19.62" departDelay="0.00" arrival="259.70" arrivalLane="-E0_1" arrivalPos="1483.25" arrivalSpeed="15.26" duration="236.90" routeLength="2995.44" waitingTime="51.80" waitingCount="1" stopTime="0.00" timeLoss="61.41" rerouteNo="1" devices="tripinfo_SW.cav.1 routing_SW.cav.1" vType="cav" speedFactor="0.97" vaporized=""/>
    <tripinfo id="NS.cav.11" depart="44.80" departLane="E1_2" departPos="5.10" departSpeed="17.64" departDelay="0.00" arrival="259.70" arrivalLane="E3_0" arrivalPos="1483.04" arrivalSpeed="17.64" duration="214.90" routeLength="2995.02" waitingTime="28.50" waitingCount="2" stopTime="0.00" timeLoss="45.10" rerouteNo="1" devices="tripinfo_NS.cav.11 routing_NS.cav.11" vType="cav" speedFactor="0.88" vaporized=""/>
    <tripinfo id="SN.cav.19" depart="94.00" departLane="-E3_2" departPos="5.10" departSpeed="21.43" departDelay="0.00" arrival="260.40" arrivalLane="-E1_1" arrivalPos="1483.25" arrivalSpeed="20.86" duration="166.40" routeLength="2995.02" waitingTime="0.00" waitingCount="0" stopTime="0.00" timeLoss="26.56" rerouteNo="1" devices="tripinfo_SN.cav.19 routing_SN.cav.19" vType="cav" speedFactor="1.06" vaporized=""/>
    <tripinfo id="SN.cav.18" depart="90.50" departLane="-E3_2" departPos="5.10" departSpeed="21.26" departDelay="0.00" arrival="260.60" arrivalLane="-E1_0" arrivalPos="1483.25" arrivalSpeed="20.58" duration="170.10" routeLength="2995.02" waitingTime="1.70" waitingCount="1" stopTime="0.00" timeLoss="29.21" rerouteNo="1" devices="tripinfo_SN.cav.18 routing_SN.cav.18" vType="cav" speedFactor="1.06" vaporized=""/>
    <tripinfo id="WE.cav.5" depart="25.10" departLane="E0_1" departPos="5.10" departSpeed="13.66" departDelay="0.00" arrival="260.90" arrivalLane="E2_0" arrivalPos="1483.93" arrivalSpeed="13.66" duration="235.80" routeLength="2995.06" waitingTime="4.60" waitingCount="1" stopTime="0.00" timeLoss="16.49" rerouteNo="1" devices="tripinfo_WE.cav.5 routing_WE.cav.5" vType="cav" speedFactor="0.87" vaporized=""/>
    <tripinfo id="WE.cav.7" depart="32.50" departLane="E0_1" departPos="5.10" departSpeed="14.09" departDelay="0.00" arrival="260.90" arrivalLane="E2_1" arrivalPos="1483.93" arrivalSpeed="14.09" duration="228.40" routeLength="2995.06" waitingTime="0.00" waitingCount="0" stopTime="0.00" timeLoss="15.90" rerouteNo="1" devices="tripinfo_WE.cav.7 routing_WE.cav.7" vType="cav" speedFactor="0.90" vaporized=""/>
    <tripinfo id="SW.cav.0" depart="8.60" departLane="-E3_3" departPos="5.10" departSpeed="18.87" departDelay="0.00" arrival="261.10" arrivalLane="-E0_0" arrivalPos="1483.25" arrivalSpeed="14.68" duration="252.50" routeLength="2995.44" waitingTime="62.30" waitingCount="1" stopTime="0.00" timeLoss="70.07" rerouteNo="1" devices="tripinfo_SW.cav.0 routing_SW.cav.0" vType="cav" speedFactor="0.94" vaporized=""/>
    <tripinfo id="NS.cav.17" depart="67.10" departLane="E1_1" departPos="5.10" departSpeed="21.24" departDelay="0.00" arrival="262.30" arrivalLane="E3_1" arrivalPos="1483.04" arrivalSpeed="21.04" duration="195.20" routeLength="2995.02" waitingTime="22.30" waitingCount="1" stopTime="0.00" timeLoss="54.14" rerouteNo="1" devices="tripinfo_NS.cav.17 routing_NS.cav.17" vType="cav" speedFactor="1.06" vaporized=""/>
    <tripinfo id="NE.cav.0" depart="31.00" departLane="E1_3" departPos="5.10" departSpeed="23.74" departDelay="0.00" arrival="262.60" arrivalLane="E2_1" arrivalPos="1483.93" arrivalSpeed="16.41" duration="231.60" routeLength="2996.72" waitingTime="55.50" waitingCount="1" stopTime="0.00" timeLoss="86.51" rerouteNo="1" devices="tripinfo_NE.cav.0 routing_NE.cav.0" vType="cav" speedFactor="1.18" vaporized=""/>
    <tripinfo id="SN.cav.21" depart="98.80" departLane="-E3_2" departPos="5.10" departSpeed="21.58" departDelay="0.00" arrival="262.60" arrivalLane="-E1_1" arrivalPos="1483.25" arrivalSpeed="20.93" duration="163.80" routeLength="2995.02" waitingTime="0.00" waitingCount="0" stopTime="0.00" timeLoss="24.94" rerouteNo="1" devices="tripinfo_SN.cav.21 routing_SN.cav.21" vType="cav" speedFactor="1.07" vaporized=""/>
    <tripinfo id="SN.cav.22" depart="99.20" departLane="-E3_1" departPos="5.10" departSpeed="20.40" departDelay="0.00" arrival="263.20" arrivalLane="-E1_0" arrivalPos="1483.25" arrivalSpeed="20.10" duration="164.00" routeLength="2995.02" waitingTime="0.00" waitingCount="0" stopTime="0.00" timeLoss="17.14" rerouteNo="1" devices="tripinfo_SN.cav.22 routing_SN.cav.22" vType="cav" speedFactor="1.01" vaporized=""/>