<?xml version="1.0" encoding="UTF-8"?>

<!-- generated on 2022-05-01 19:28:38 by Eclipse SUMO GUI Version 1.12.0
<configuration xmlns:xsi="http://www.w3.org/2001/XMLSchema-instance" xsi:noNamespaceSchemaLocation="http://sumo.dlr.de/xsd/sumoConfiguration.xsd">

    <input>
        <net-file value="data/tsp.net.xml"/>
        <route-files value="data/tsp.rou.xml"/>
        <additional-files value="data/tsp.add.xml"/>
    </input>

    <output>
        <tripinfo-output value="tripinfo.xml"/>
    </output>

    <report>
        <verbose value="true"/>
        <log value="logfile.xml"/>
        <duration-log.statistics value="true"/>
    </report>

    <traci_server>
        <remote-port value="59953"/>
    </traci_server>

</configuration>
-->

<tripinfos xmlns:xsi="http://www.w3.org/2001/XMLSchema-instance" xsi:noNamespaceSchemaLocation="http://sumo.dlr.de/xsd/tripinfo_file.xsd">
    <tripinfo id="WE.0" depart="1.00" departLane="E0_0" departPos="5.10" departSpeed="13.89" departDelay="0.00" arrival="73.00" arrivalLane="-E1_0" arrivalPos="489.60" arrivalSpeed="13.89" duration="72.00" routeLength="994.90" waitingTime="0.00" waitingCount="0" stopTime="0.00" timeLoss="0.14" rerouteNo="0" devices="tripinfo_WE.0 routing_WE.0" vType="car" speedFactor="0.94" vaporized=""/>
    <tripinfo id="EW.0" depart="3.00" departLane="E1_0" departPos="5.10" departSpeed="13.89" departDelay="0.00" arrival="75.00" arrivalLane="-E0_0" arrivalPos="489.60" arrivalSpeed="13.89" duration="72.00" routeLength="994.90" waitingTime="0.00" waitingCount="0" stopTime="0.00" timeLoss="0.11" rerouteNo="0" devices="tripinfo_EW.0 routing_EW.0" vType="car" speedFactor="1.01" vaporized=""/>
    <tripinfo id="SE.0" depart="0.00" departLane="E2_0" departPos="5.10" departSpeed="13.89" departDelay="0.00" arrival="77.00" arrivalLane="-E1_0" arrivalPos="489.60" arrivalSpeed="13.88" duration="77.00" routeLength="979.93" waitingTime="0.00" waitingCount="0" stopTime="0.00" timeLoss="5.62" rerouteNo="0" devices="tripinfo_SE.0 routing_SE.0" vType="car" speedFactor="1.06" vaporized=""/>
    <tripinfo id="EW.1" depart="5.00" departLane="E1_1" departPos="5.10" departSpeed="13.89" departDelay="0.00" arrival="79.00" arrivalLane="-E0_0" arrivalPos="489.60" arrivalSpeed="13.88" duration="74.00" routeLength="994.90" waitingTime="0.00" waitingCount="0" stopTime="0.00" timeLoss="2.03" rerouteNo="0" devices="tripinfo_EW.1 routing_EW.1" vType="car" speedFactor="1.08" vaporized=""/>
    <tripinfo id="WE.1" depart="7.00" departLane="E0_1" departPos="5.10" departSpeed="13.89" departDelay="0.00" arrival="80.00" arrivalLane="-E1_0" arrivalPos="489.60" arrivalSpeed="13.83" duration="73.00" routeLength="994.90" waitingTime="0.00" waitingCount="0" stopTime="0.00" timeLoss="1.32" rerouteNo="0" devices="tripinfo_WE.1 routing_WE.1" vType="car" speedFactor="1.03" vaporized=""/>
    <tripinfo id="NW.0" depart="13.00" departLane="E3_1" departPos="5.10" departSpeed="13.89" departDelay="0.00" arrival="90.00" arrivalLane="-E0_0" arrivalPos="489.60" arrivalSpeed="13.89" duration="77.00" routeLength="979.93" waitingTime="0.00" waitingCount="0" stopTime="0.00" timeLoss="5.25" rerouteNo="0" devices="tripinfo_NW.0 routing_NW.0" vType="car" speedFactor="1.05" vaporized=""/>
    <tripinfo id="SE.1" depart="17.00" departLane="E2_1" departPos="5.10" departSpeed="13.89" departDelay="0.00" arrival="94.00" arrivalLane="-E1_0" arrivalPos="489.60" arrivalSpeed="13.89" duration="77.00" routeLength="979.93" waitingTime="0.00" waitingCount="0" stopTime="0.00" timeLoss="4.27" rerouteNo="0" devices="tripinfo_SE.1 routing_SE.1" vType="car" speedFactor="0.86" vaporized=""/>
    <tripinfo id="SE.2" depart="18.00" departLane="E2_1" departPos="5.10" departSpeed="10.62" departDelay="0.00" arrival="96.00" arrivalLane="-E1_1" arrivalPos="489.60" arrivalSpeed="13.89" duration="78.00" routeLength="979.93" waitingTime="0.00" waitingCount="0" stopTime="0.00" timeLoss="6.88" rerouteNo="0" devices="tripinfo_SE.2 routing_SE.2" vType="car" speedFactor="1.03" vaporized=""/>
    <tripinfo id="NW.1" depart="20.00" departLane="E3_1" departPos="5.10" departSpeed="13.89" departDelay="0.00" arrival="97.00" arrivalLane="-E0_0" arrivalPos="489.60" arrivalSpeed="13.89" duration="77.00" routeLength="979.93" waitingTime="0.00" waitingCount="0" stopTime="0.00" timeLoss="5.38" rerouteNo="0" devices="tripinfo_NW.1 routing_NW.1" vType="car" speedFactor="1.05" vaporized=""/>
    <tripinfo id="SE.3" depart="20.00" departLane="E2_0" departPos="5.10" departSpeed="11.87" departDelay="0.00" arrival="99.00" arrivalLane="-E1_0" arrivalPos="489.60" arrivalSpeed="13.89" duration="79.00" routeLength="979.93" waitingTime="0.00" waitingCount="0" stopTime="0.00" timeLoss="7.75" rerouteNo="0" devices="tripinfo_SE.3 routing_SE.3" vType="car" speedFactor="0.99" vaporized=""/>
    <tripinfo id="NS.0" depart="30.00" departLane="E3_0" departPos="5.10" departSpeed="13.89" departDelay="0.00" arrival="114.00" arrivalLane="-E2_0" arrivalPos="486.40" arrivalSpeed="13.89" duration="84.00" routeLength="994.90" waitingTime="2.00" waitingCount="1" stopTime="0.00" timeLoss="11.91" rerouteNo="0" devices="tripinfo_NS.0 routing_NS.0" vType="car" speedFactor="1.16" vaporized=""/>
    <tripinfo id="SE.4" depart="39.00" departLane="E2_1" departPos="5.10" departSpeed="13.89" departDelay="0.00" arrival="115.00" arrivalLane="-E1_0" arrivalPos="489.60" arrivalSpeed="13.89" duration="76.00" routeLength="979.93" waitingTime="0.00" waitingCount="0" stopTime="0.00" timeLoss="4.21" rerouteNo="0" devices="tripinfo_SE.4 routing_SE.4" vType="car" speedFactor="0.87" vaporized=""/>
    <tripinfo id="NE.0" depart="37.00" departLane="E3_0" departPos="5.10" departSpeed="13.76" departDelay="0.00" arrival="118.00" arrivalLane="-E1_1" arrivalPos="489.60" arrivalSpeed="13.76" duration="81.00" routeLength="992.89" waitingTime="0.00" waitingCount="0" stopTime="0.00" timeLoss="7.18" rerouteNo="0" devices="tripinfo_NE.0 routing_NE.0" vType="car" speedFactor="0.83" vaporized=""/>
    <tripinfo id="SE.5" depart="49.00" departLane="E2_1" departPos="5.10" departSpeed="13.89" departDelay="0.00" arrival="124.00" arrivalLane="-E1_0" arrivalPos="489.60" arrivalSpeed="13.89" duration="75.00" routeLength="979.93" waitingTime="0.00" waitingCount="0" stopTime="0.00" timeLoss="3.57" rerouteNo="0" devices="tripinfo_SE.5 routing_SE.5" vType="car" speedFactor="1.18" vaporized=""/>
    <tripinfo id="SE.6" depart="61.00" departLane="E2_1" departPos="5.10" departSpeed="13.89" departDelay="0.00" arrival="136.00" arrivalLane="-E1_0" arrivalPos="489.60" arrivalSpeed="13.89" duration="75.00" routeLength="979.93" waitingTime="0.00" waitingCount="0" stopTime="0.00" timeLoss="4.05" rerouteNo="0" devices="tripinfo_SE.6 routing_SE.6" vType="car" speedFactor="1.17" vaporized=""/>
    <tripinfo id="ES.0" depart="23.00" departLane="E1_1" departPos="5.10" departSpeed="13.89" departDelay="0.00" arrival="139.00" arrivalLane="-E2_0" arrivalPos="486.40" arrivalSpeed="13.89" duration="116.00" routeLength="992.89" waitingTime="34.00" waitingCount="1" stopTime="0.00" timeLoss="43.45" rerouteNo="0" devices="tripinfo_ES.0 routing_ES.0" vType="car" speedFactor="0.93" vaporized=""/>
    <tripinfo id="WN.0" depart="12.00" departLane="E0_2" departPos="5.10" departSpeed="13.85" departDelay="0.00" arrival="140.00" arrivalLane="-E3_0" arrivalPos="486.40" arrivalSpeed="13.85" duration="128.00" routeLength="992.89" waitingTime="45.00" waitingCount="1" stopTime="0.00" timeLoss="54.31" rerouteNo="0" devices="tripinfo_WN.0 routing_WN.0" vType="car" speedFactor="0.83" vaporized=""/>
    <tripinfo id="WN.1" depart="30.00" departLane="E0_1" departPos="5.10" departSpeed="13.89" departDelay="0.00" arrival="143.00" arrivalLane="-E3_0" arrivalPos="486.40" arrivalSpeed="13.85" duration="113.00" routeLength="992.89" waitingTime="28.00" waitingCount="1" stopTime="0.00" timeLoss="40.67" rerouteNo="0" devices="tripinfo_WN.1 routing_WN.1" vType="car" speedFactor="1.02" vaporized=""/>
    <tripinfo id="ES.1" depart="47.00" departLane="E1_2" departPos="5.10" departSpeed="13.89" departDelay="0.00" arrival="143.00" arrivalLane="-E2_0" arrivalPos="486.40" arrivalSpeed="13.87" duration="96.00" routeLength="992.89" waitingTime="11.00" waitingCount="1" stopTime="0.00" timeLoss="23.35" rerouteNo="0" devices="tripinfo_ES.1 routing_ES.1" vType="car" speedFactor="1.13" vaporized=""/>
    <tripinfo id="ES.2" depart="68.00" departLane="E1_2" departPos="5.10" departSpeed="13.89" departDelay="0.00" arrival="146.00" arrivalLane="-E2_0" arrivalPos="486.40" arrivalSpeed="13.84" duration="78.00" routeLength="992.89" waitingTime="0.00" waitingCount="0" stopTime="0.00" timeLoss="5.58" rerouteNo="0" devices="tripinfo_ES.2 routing_ES.2" vType="car" speedFactor="1.18" vaporized=""/>
    <tripinfo id="WN.2" depart="76.00" departLane="E0_1" departPos="5.10" departSpeed="13.89" departDelay="0.00" arrival="150.00" arrivalLane="-E3_0" arrivalPos="486.40" arrivalSpeed="13.89" duration="74.00" routeLength="992.89" waitingTime="0.00" waitingCount="0" stopTime="0.00" timeLoss="2.04" rerouteNo="0" devices="tripinfo_WN.2 routing_WN.2" vType="car" speedFactor="1.09" vaporized=""/>
    <tripinfo id="SE.7" depart="81.00" departLane="E2_1" departPos="5.10" departSpeed="13.89" departDelay="0.00" arrival="158.00" arrivalLane="-E1_0" arrivalPos="489.60" arrivalSpeed="13.89" duration="77.00" routeLength="979.93" waitingTime="0.00" waitingCount="0" stopTime="0.00" timeLoss="5.24" rerouteNo="0" devices="tripinfo_SE.7 routing_SE.7" vType="car" speedFactor="0.88" vaporized=""/>
    <tripinfo id="EW.2" depart="15.00" departLane="E1_1" departPos="5.10" departSpeed="13.89" departDelay="0.00" arrival="164.00" arrivalLane="-E0_0" arrivalPos="489.60" arrivalSpeed="13.89" duration="149.00" routeLength="994.90" waitingTime="67.00" waitingCount="1" stopTime="0.00" timeLoss="76.69" rerouteNo="0" devices="tripinfo_EW.2 routing_EW.2" vType="car" speedFactor="0.89" vaporized=""/>
    <tripinfo id="EW.4" depart="18.00" departLane="E1_1" departPos="5.10" departSpeed="13.89" departDelay="0.00" arrival="164.00" arrivalLane="-E0_1" arrivalPos="489.60" arrivalSpeed="13.89" duration="146.00" routeLength="994.90" waitingTime="63.00" waitingCount="1" stopTime="0.00" timeLoss="73.69" rerouteNo="0" devices="tripinfo_EW.4 routing_EW.4" vType="car" speedFactor="1.09" vaporized=""/>
    <tripinfo id="WE.2" depart="25.00" departLane="E0_1" departPos="5.10" departSpeed="13.89" departDelay="0.00" arrival="164.00" arrivalLane="-E1_1" arrivalPos="489.60" arrivalSpeed="13.89" duration="139.00" routeLength="994.90" waitingTime="57.00" waitingCount="1" stopTime="0.00" timeLoss="66.69" rerouteNo="0" devices="tripinfo_WE.2 routing_WE.2" vType="car" speedFactor="0.94" vaporized=""/>
    <tripinfo id="WE.3" depart="49.00" departLane="E0_1" departPos="5.10" departSpeed="13.89" departDelay="0.00" arrival="164.00" arrivalLane="-E1_0" arrivalPos="489.60" arrivalSpeed="13.89" duration="115.00" routeLength="994.90" waitingTime="33.00" waitingCount="1" stopTime="0.00" timeLoss="43.05" rerouteNo="0" devices="tripinfo_WE.3 routing_WE.3" vType="car" speedFactor="1.15" vaporized=""/>
    <tripinfo id="EW.5" depart="20.00" departLane="E1_2" departPos="5.10" departSpeed="13.89" departDelay="0.00" arrival="167.00" arrivalLane="-E0_2" arrivalPos="489.60" arrivalSpeed="13.89" duration="147.00" routeLength="994.90" waitingTime="62.00" waitingCount="1" stopTime="0.00" timeLoss="74.83" rerouteNo="0" devices="tripinfo_EW.5 routing_EW.5" vType="car" speedFactor="1.12" vaporized=""/>
    <tripinfo id="WE.5" depart="69.00" departLane="E0_1" departPos="5.10" departSpeed="13.89" departDelay="0.00" arrival="167.00" arrivalLane="-E1_2" arrivalPos="489.60" arrivalSpeed="13.89" duration="98.00" routeLength="994.90" waitingTime="14.00" waitingCount="1" stopTime="0.00" timeLoss="25.83" rerouteNo="0" devices="tripinfo_WE.5 routing_WE.5" vType="car" speedFactor="0.90" vaporized=""/>
    <tripinfo id="EW.3" depart="17.00" departLane="E1_2" departPos="5.10" departSpeed="13.89" departDelay="0.00" arrival="168.00" arrivalLane="-E0_0" arrivalPos="489.60" arrivalSpeed="13.87" duration="151.00" routeLength="994.90" waitingTime="66.00" waitingCount="1" stopTime="0.00" timeLoss="78.42" rerouteNo="0" devices="tripinfo_EW.3 routing_EW.3" vType="car" speedFactor="0.94" vaporized=""/>
    <tripinfo id="WE.4" depart="65.00" departLane="E0_1" departPos="5.10" departSpeed="13.89" departDelay="0.00" arrival="168.00" arrivalLane="-E1_0" arrivalPos="489.60" arrivalSpeed="13.87" duration="103.00" routeLength="994.90" waitingTime="18.00" waitingCount="1" stopTime="0.00" timeLoss="30.58" rerouteNo="0" devices="tripinfo_WE.4 routing_WE.4" vType="car" speedFactor="1.02" vaporized=""/>
    <tripinfo id="EW.6" depart="25.00" departLane="E1_2" departPos="5.10" departSpeed="13.89" departDelay="0.00" arrival="170.00" arrivalLane="-E0_1" arrivalPos="489.60" arrivalSpeed="13.89" duration="145.00" routeLength="994.90" waitingTime="60.00" waitingCount="1" stopTime="0.00" timeLoss="72.50" rerouteNo="0" devices="tripinfo_EW.6 routing_EW.6" vType="car" speedFactor="0.88" vaporized=""/>
    <tripinfo id="WE.6" depart="86.00" departLane="E0_1" departPos="5.10" departSpeed="13.89" departDelay="0.00" arrival="170.00" arrivalLane="-E1_0" arrivalPos="489.60" arrivalSpeed="13.89" duration="84.00" routeLength="994.90" waitingTime="0.00" waitingCount="0" stopTime="0.00" timeLoss="11.67" rerouteNo="0" devices="tripinfo_WE.6 routing_WE.6" vType="car" speedFactor="0.85" vaporized=""/>
    <tripinfo id="WE.7" depart="91.00" departLane="E0_1" departPos="5.10" departSpeed="13.89" departDelay="0.00" arrival="170.00" arrivalLane="-E1_1" arrivalPos="489.60" arrivalSpeed="13.83" duration="79.00" routeLength="994.90" waitingTime="0.00" waitingCount="0" stopTime="0.00" timeLoss="6.75" rerouteNo="0" devices="tripinfo_WE.7 routing_WE.7" vType="car" speedFactor="1.10" vaporized=""/>
    <tripinfo id="EW.7" depart="26.00" departLane="E1_1" departPos="5.10" departSpeed="13.89" departDelay="0.00" arrival="171.00" arrivalLane="-E0_0" arrivalPos="489.60" arrivalSpeed="13.84" duration="145.00" routeLength="994.90" waitingTime="59.00" waitingCount="1" stopTime="0.00" timeLoss="72.54" rerouteNo="0" devices="tripinfo_EW.7 routing_EW.7" vType="car" speedFactor="0.94" vaporized=""/>
    <tripinfo id="EW.9" depart="33.00" departLane="E1_2" departPos="5.10" departSpeed="13.89" departDelay="0.00" arrival="172.00" arrivalLane="-E0_1" arrivalPos="489.60" arrivalSpeed="13.58" duration="139.00" routeLength="994.90" waitingTime="54.00" waitingCount="1" stopTime="0.00" timeLoss="66.59" rerouteNo="0" devices="tripinfo_EW.9 routing_EW.9" vType="car" speedFactor="0.98" vaporized=""/>
    <tripinfo id="EW.8" depart="31.00" departLane="E1_2" departPos="5.10" departSpeed="13.89" departDelay="0.00" arrival="173.00" arrivalLane="-E0_0" arrivalPos="489.60" arrivalSpeed="13.73" duration="142.00" routeLength="994.90" waitingTime="56.00" waitingCount="1" stopTime="0.00" timeLoss="70.37" rerouteNo="0" devices="tripinfo_EW.8 routing_EW.8" vType="car" speedFactor="1.01" vaporized=""/>
    <tripinfo id="EW.11" depart="41.00" departLane="E1_2" departPos="5.10" departSpeed="13.89" departDelay="0.00" arrival="174.00" arrivalLane="-E0_1" arrivalPos="489.60" arrivalSpeed="13.61" duration="133.00" routeLength="994.90" waitingTime="47.00" waitingCount="1" stopTime="0.00" timeLoss="60.94" rerouteNo="0" devices="tripinfo_EW.11 routing_EW.11" vType="car" speedFactor="0.92" vaporized=""/>
    <tripinfo id="EW.10" depart="35.00" departLane="E1_2" departPos="5.10" departSpeed="13.89" departDelay="0.00" arrival="176.00" arrivalLane="-E0_0" arrivalPos="489.60" arrivalSpeed="13.80" duration="141.00" routeLength="994.90" waitingTime="53.00" waitingCount="1" stopTime="0.00" timeLoss="69.00" rerouteNo="0" devices="tripinfo_EW.10 routing_EW.10" vType="car" speedFactor="0.89" vaporized=""/>
    <tripinfo id="EW.13" depart="50.00" departLane="E1_2" departPos="5.10" departSpeed="13.89" departDelay="0.00" arrival="176.00" arrivalLane="-E0_1" arrivalPos="489.60" arrivalSpeed="13.62" duration="126.00" routeLength="994.90" waitingTime="39.00" waitingCount="1" stopTime="0.00" timeLoss="54.32" rerouteNo="0" devices="tripinfo_EW.13 routing_EW.13" vType="car" speedFactor="1.01" vaporized=""/>
    <tripinfo id="WE.8" depart="104.00" departLane="E0_2" departPos="5.10" departSpeed="13.89" departDelay="0.00" arrival="177.00" arrivalLane="-E1_0" arrivalPos="489.60" arrivalSpeed="13.89" duration="73.00" routeLength="994.90" waitingTime="0.00" waitingCount="0" stopTime="0.00" timeLoss="0.48" rerouteNo="0" devices="tripinfo_WE.8 routing_WE.8" vType="car" speedFactor="1.14" vaporized=""/>
    <tripinfo id="EW.12" depart="48.00" departLane="E1_2" departPos="5.10" departSpeed="10.62" departDelay="0.00" arrival="179.00" arrivalLane="-E0_0" arrivalPos="489.60" arrivalSpeed="13.80" duration="131.00" routeLength="994.90" waitingTime="41.00" waitingCount="1" stopTime="0.00" timeLoss="58.56" rerouteNo="0" devices="tripinfo_EW.12 routing_EW.12" vType="car" speedFactor="0.93" vaporized=""/>
    <tripinfo id="EW.15" depart="72.00" departLane="E1_2" departPos="5.10" departSpeed="13.89" departDelay="0.00" arrival="179.00" arrivalLane="-E0_1" arrivalPos="489.60" arrivalSpeed="13.76" duration="107.00" routeLength="994.90" waitingTime="19.00" waitingCount="1" stopTime="0.00" timeLoss="34.64" rerouteNo="0" devices="tripinfo_EW.15 routing_EW.15" vType="car" speedFactor="1.03" vaporized=""/>
    <tripinfo id="EW.18" depart="79.00" departLane="E1_2" departPos="5.10" departSpeed="13.89" departDelay="0.00" arrival="180.00" arrivalLane="-E0_2" arrivalPos="489.60" arrivalSpeed="13.89" duration="101.00" routeLength="994.90" waitingTime="14.00" waitingCount="1" stopTime="0.00" timeLoss="28.39" rerouteNo="0" devices="tripinfo_EW.18 routing_EW.18" vType="car" speedFactor="1.09" vaporized=""/>
    <tripinfo id="EW.14" depart="62.00" departLane="E1_2" departPos="5.10" departSpeed="13.89" departDelay="0.00" arrival="181.00" arrivalLane="-E0_0" arrivalPos="489.60" arrivalSpeed="13.67" duration="119.00" routeLength="994.90" waitingTime="29.00" waitingCount="1" stopTime="0.00" timeLoss="47.06" rerouteNo="0" devices="tripinfo_EW.14 routing_EW.14" vType="car" speedFactor="0.99" vaporized=""/>
    <tripinfo id="EW.20" depart="81.00" departLane="E1_2" departPos="5.10" departSpeed="13.89" departDelay="0.00" arrival="182.00" arrivalLane="-E0_1" arrivalPos="489.60" arrivalSpeed="13.83" duration="101.00" routeLength="994.90" waitingTime="12.00" waitingCount="1" stopTime="0.00" timeLoss="28.85" rerouteNo="0" devices="tripinfo_EW.20 routing_EW.20" vType="car" speedFactor="0.90" vaporized=""/>
    <tripinfo id="EW.16" depart="75.00" departLane="E1_2" departPos="5.10" departSpeed="13.89" departDelay="0.00" arrival="184.00" arrivalLane="-E0_0" arrivalPos="489.60" arrivalSpeed="13.77" duration="109.00" routeLength="994.90" waitingTime="17.00" waitingCount="1" stopTime="0.00" timeLoss="36.46" rerouteNo="0" devices="tripinfo_EW.16 routing_EW.16" vType="car" speedFactor="0.96" vaporized=""/>
    <tripinfo id="EW.17" depart="77.00" departLane="E1_2" departPos="5.10" departSpeed="13.89" departDelay="0.00" arrival="185.00" arrivalLane="-E0_1" arrivalPos="489.60" arrivalSpeed="13.84" duration="108.00" routeLength="994.90" waitingTime="16.00" waitingCount="1" stopTime="0.00" timeLoss="36.15" rerouteNo="0" devices="tripinfo_EW.17 routing_EW.17" vType="car" speedFactor="1.04" vaporized=""/>
    <tripinfo id="NW.2" depart="106.00" departLane="E3_1" departPos="5.10" departSpeed="13.89" departDelay="0.00" arrival="185.00" arrivalLane="-E0_2" arrivalPos="489.60" arrivalSpeed="13.89" duration="79.00" routeLength="979.93" waitingTime="0.00" waitingCount="0" stopTime="0.00" timeLoss="7.56" rerouteNo="0" devices="tripinfo_NW.2 routing_NW.2" vType="car" speedFactor="1.02" vaporized=""/>
    <tripinfo id="SN.0" depart="42.00" departLane="E2_1" departPos="5.10" departSpeed="13.89" departDelay="0.00" arrival="189.00" arrivalLane="-E3_0" arrivalPos="486.40" arrivalSpeed="13.89" duration="147.00" routeLength="994.90" waitingTime="65.00" waitingCount="1" stopTime="0.00" timeLoss="74.92" rerouteNo="0" devices="tripinfo_SN.0 routing_SN.0" vType="car" speedFactor="0.95" vaporized=""/>
    <tripinfo id="SE.8" depart="114.00" departLane="E2_0" departPos="5.10" departSpeed="13.89" departDelay="0.00" arrival="189.00" arrivalLane="-E1_0" arrivalPos="489.60" arrivalSpeed="13.89" duration="75.00" routeLength="979.93" waitingTime="0.00" waitingCount="0" stopTime="0.00" timeLoss="3.62" rerouteNo="0" devices="tripinfo_SE.8 routing_SE.8" vType="car" speedFactor="1.12" vaporized=""/>
    <tripinfo id="SN.1" depart="66.00" departLane="E2_1" departPos="5.10" departSpeed="13.89" departDelay="0.00" arrival="193.00" arrivalLane="-E3_0" arrivalPos="486.40" arrivalSpeed="13.87" duration="127.00" routeLength="994.90" waitingTime="43.00" waitingCount="1" stopTime="0.00" timeLoss="54.65" rerouteNo="0" devices="tripinfo_SN.1 routing_SN.1" vType="car" speedFactor="0.97" vaporized=""/>
    <tripinfo id="SE.9" depart="118.00" departLane="E2_0" departPos="5.10" departSpeed="13.89" departDelay="0.00" arrival="195.00" arrivalLane="-E1_0" arrivalPos="489.60" arrivalSpeed="13.89" duration="77.00" routeLength="979.93" waitingTime="0.00" waitingCount="0" stopTime="0.00" timeLoss="4.62" rerouteNo="0" devices="tripinfo_SE.9 routing_SE.9" vType="car" speedFactor="0.91" vaporized=""/>
    <tripinfo id="SN.2" depart="77.00" departLane="E2_1" departPos="5.10" departSpeed="13.89" departDelay="0.00" arrival="196.00" arrivalLane="-E3_0" arrivalPos="486.40" arrivalSpeed="13.84" duration="119.00" routeLength="994.90" waitingTime="33.00" waitingCount="1" stopTime="0.00" timeLoss="46.77" rerouteNo="0" devices="tripinfo_SN.2 routing_SN.2" vType="car" speedFactor="1.04" vaporized=""/>
    <tripinfo id="SN.3" depart="82.00" departLane="E2_1" departPos="5.10" departSpeed="10.44" departDelay="1.00" arrival="199.00" arrivalLane="-E3_0" arrivalPos="486.40" arrivalSpeed="13.82" duration="117.00" routeLength="994.90" waitingTime="29.00" waitingCount="1" stopTime="0.00" timeLoss="44.60" rerouteNo="0" devices="tripinfo_SN.3 routing_SN.3" vType="car" speedFactor="0.85" vaporized=""/>
    <tripinfo id="SE.10" depart="123.00" departLane="E2_0" departPos="5.10" departSpeed="13.89" departDelay="0.00" arrival="199.00" arrivalLane="-E1_0" arrivalPos="489.60" arrivalSpeed="13.88" duration="76.00" routeLength="979.93" waitingTime="0.00" waitingCount="0" stopTime="0.00" timeLoss="4.32" rerouteNo="0" devices="tripinfo_SE.10 routing_SE.10" vType="car" speedFactor="1.02" vaporized=""/>
    <tripinfo id="SW.0" depart="126.00" departLane="E2_1" departPos="5.10" departSpeed="13.89" departDelay="0.00" arrival="204.00" arrivalLane="-E0_0" arrivalPos="489.60" arrivalSpeed="13.89" duration="78.00" routeLength="992.89" waitingTime="0.00" waitingCount="0" stopTime="0.00" timeLoss="5.12" rerouteNo="0" devices="tripinfo_SW.0 routing_SW.0" vType="car" speedFactor="0.97" vaporized=""/>
    <tripinfo id="SE.11" depart="129.00" departLane="E2_0" departPos="5.10" departSpeed="13.89" departDelay="0.00" arrival="205.00" arrivalLane="-E1_0" arrivalPos="489.60" arrivalSpeed="13.89" duration="76.00" routeLength="979.93" waitingTime="0.00" waitingCount="0" stopTime="0.00" timeLoss="4.00" rerouteNo="0" devices="tripinfo_SE.11 routing_SE.11" vType="car" speedFactor="1.06" vaporized=""/>
    <tripinfo id="NS.1" depart="69.00" departLane="E3_1" departPos="5.10" departSpeed="13.89" departDelay="0.00" arrival="214.00" arrivalLane="-E2_0" arrivalPos="486.40" arrivalSpeed="13.89" duration="145.00" routeLength="994.90" waitingTime="63.00" waitingCount="1" stopTime="0.00" timeLoss="72.92" rerouteNo="0" devices="tripinfo_NS.1 routing_NS.1" vType="car" speedFactor="1.10" vaporized=""/>
    <tripinfo id="NS.2" depart="89.00" departLane="E3_0" departPos="5.10" departSpeed="13.89" departDelay="0.00" arrival="218.00" arrivalLane="-E2_0" arrivalPos="486.40" arrivalSpeed="13.88" duration="129.00" routeLength="994.90" waitingTime="45.00" waitingCount="1" stopTime="0.00" timeLoss="56.71" rerouteNo="0" devices="tripinfo_NS.2 routing_NS.2" vType="car" speedFactor="1.17" vaporized=""/>
    <tripinfo id="NS.3" depart="103.00" departLane="E3_0" departPos="5.10" departSpeed="13.89" departDelay="0.00" arrival="221.00" arrivalLane="-E2_0" arrivalPos="486.40" arrivalSpeed="13.84" duration="118.00" routeLength="994.90" waitingTime="32.00" waitingCount="1" stopTime="0.00" timeLoss="45.97" rerouteNo="0" devices="tripinfo_NS.3 routing_NS.3" vType="car" speedFactor="0.90" vaporized=""/>
    <tripinfo id="NW.3" depart="144.00" departLane="E3_1" departPos="5.10" departSpeed="13.89" departDelay="0.00" arrival="221.00" arrivalLane="-E0_0" arrivalPos="489.60" arrivalSpeed="13.89" duration="77.00" routeLength="979.93" waitingTime="0.00" waitingCount="0" stopTime="0.00" timeLoss="5.21" rerouteNo="0" devices="tripinfo_NW.3 routing_NW.3" vType="car" speedFactor="0.98" vaporized=""/>
    <tripinfo id="NS.4" depart="117.00" departLane="E3_0" departPos="5.10" departSpeed="13.89" departDelay="0.00" arrival="224.00" arrivalLane="-E2_0" arrivalPos="486.40" arrivalSpeed="13.83" duration="107.00" routeLength="994.90" waitingTime="20.00" waitingCount="1" stopTime="0.00" timeLoss="35.05" rerouteNo="0" devices="tripinfo_NS.4 routing_NS.4" vType="car" speedFactor="0.94" vaporized=""/>
    <tripinfo id="NE.1" depart="128.00" departLane="E3_1" departPos="5.10" departSpeed="13.89" departDelay="0.00" arrival="226.00" arrivalLane="-E1_0" arrivalPos="489.60" arrivalSpeed="13.89" duration="98.00" routeLength="992.89" waitingTime="10.00" waitingCount="1" stopTime="0.00" timeLoss="24.96" rerouteNo="0" devices="tripinfo_NE.1 routing_NE.1" vType="car" speedFactor="0.94" vaporized=""/>
    <tripinfo id="EW.19" depart="80.00" departLane="E1_2" departPos="5.10" departSpeed="10.44" departDelay="0.00" arrival="229.00" arrivalLane="-E0_0" arrivalPos="489.60" arrivalSpeed="13.89" duration="149.00" routeLength="994.90" waitingTime="54.00" waitingCount="2" stopTime="0.00" timeLoss="76.86" rerouteNo="0" devices="tripinfo_EW.19 routing_EW.19" vType="car" speedFactor="1.00" vaporized=""/>
    <tripinfo id="EW.21" depart="95.00" departLane="E1_2" departPos="5.10" departSpeed="13.89" departDelay="0.00" arrival="229.00" arrivalLane="-E0_1" arrivalPos="489.60" arrivalSpeed="13.89" duration="134.00" routeLength="994.90" waitingTime="39.00" waitingCount="1" stopTime="0.00" timeLoss="61.69" rerouteNo="0" devices="tripinfo_EW.21 routing_EW.21" vType="car" speedFactor="1.00" vaporized=""/>
    <tripinfo id="WE.9" depart="122.00" departLane="E0_2" departPos="5.10" departSpeed="13.89" departDelay="0.00" arrival="229.00" arrivalLane="-E1_1" arrivalPos="489.60" arrivalSpeed="13.88" duration="107.00" routeLength="994.90" waitingTime="25.00" waitingCount="1" stopTime="0.00" timeLoss="35.07" rerouteNo="0" devices="tripinfo_WE.9 routing_WE.9" vType="car" speedFactor="1.04" vaporized=""/>
    <tripinfo id="WE.10" depart="124.00" departLane="E0_2" departPos="5.10" departSpeed="13.89" departDelay="0.00" arrival="229.00" arrivalLane="-E1_2" arrivalPos="489.60" arrivalSpeed="13.89" duration="105.00" routeLength="994.90" waitingTime="22.00" waitingCount="1" stopTime="0.00" timeLoss="33.10" rerouteNo="0" devices="tripinfo_WE.10 routing_WE.10" vType="car" speedFactor="1.02" vaporized=""/>
    <tripinfo id="EW.23" depart="110.00" departLane="E1_2" departPos="5.10" departSpeed="13.89" departDelay="0.00" arrival="232.00" arrivalLane="-E0_2" arrivalPos="489.60" arrivalSpeed="13.89" duration="122.00" routeLength="994.90" waitingTime="38.00" waitingCount="1" stopTime="0.00" timeLoss="49.83" rerouteNo="0" devices="tripinfo_EW.23 routing_EW.23" vType="car" speedFactor="0.97" vaporized=""/>
    <tripinfo id="WE.11" depart="142.00" departLane="E0_1" departPos="5.10" departSpeed="13.89" departDelay="0.00" arrival="232.00" arrivalLane="-E1_0" arrivalPos="489.60" arrivalSpeed="13.89" duration="90.00" routeLength="994.90" waitingTime="6.00" waitingCount="1" stopTime="0.00" timeLoss="18.36" rerouteNo="0" devices="tripinfo_WE.11 routing_WE.11" vType="car" speedFactor="1.03" vaporized=""/>
    <tripinfo id="EW.22" depart="102.00" departLane="E1_2" departPos="5.10" departSpeed="13.89" departDelay="0.00" arrival="233.00" arrivalLane="-E0_0" arrivalPos="489.60" arrivalSpeed="13.87" duration="131.00" routeLength="994.90" waitingTime="39.00" waitingCount="1" stopTime="0.00" timeLoss="58.50" rerouteNo="0" devices="tripinfo_EW.22 routing_EW.22" vType="car" speedFactor="1.00" vaporized=""/>
    <tripinfo id="EW.25" depart="116.00" departLane="E1_2" departPos="5.10" departSpeed="13.89" departDelay="0.00" arrival="235.00" arrivalLane="-E0_1" arrivalPos="489.60" arrivalSpeed="13.89" duration="119.00" routeLength="994.90" waitingTime="34.00" waitingCount="1" stopTime="0.00" timeLoss="46.40" rerouteNo="0" devices="tripinfo_EW.25 routing_EW.25" vType="car" speedFactor="0.99" vaporized=""/>
    <tripinfo id="EW.24" depart="115.00" departLane="E1_2" departPos="5.10" departSpeed="13.89" departDelay="0.00" arrival="236.00" arrivalLane="-E0_0" arrivalPos="489.60" arrivalSpeed="13.84" duration="121.00" routeLength="994.90" waitingTime="35.00" waitingCount="1" stopTime="0.00" timeLoss="48.59" rerouteNo="0" devices="tripinfo_EW.24 routing_EW.24" vType="car" speedFactor="1.02" vaporized=""/>
    <tripinfo id="EW.27" depart="122.00" departLane="E1_2" departPos="5.10" departSpeed="13.89" departDelay="0.00" arrival="236.00" arrivalLane="-E0_2" arrivalPos="489.60" arrivalSpeed="13.88" duration="114.00" routeLength="994.90" waitingTime="29.00" waitingCount="1" stopTime="0.00" timeLoss="42.29" rerouteNo="0" devices="tripinfo_EW.27 routing_EW.27" vType="car" speedFactor="0.91" vaporized=""/>