<?xml version="1.0" encoding="UTF-8"?>

<!-- generated on 2022-07-09 19:00:12 by Eclipse SUMO sumo Version 1.13.0
<configuration xmlns:xsi="http://www.w3.org/2001/XMLSchema-instance" xsi:noNamespaceSchemaLocation="http://sumo.dlr.de/xsd/sumoConfiguration.xsd">

    <input>
        <net-file value="data/Eastway-Central.net.xml"/>
        <route-files value="data/cav100-conflict.rou.xml"/>
        <additional-files value="data/Eastway-Central.add.xml"/>
    </input>

    <output>
        <tripinfo-output value="tripinfo.xml"/>
    </output>

    <time>
        <step-length value="0.1"/>
    </time>

    <report>
        <verbose value="true"/>
        <log value="logfile.xml"/>
        <duration-log.statistics value="true"/>
    </report>

    <traci_server>
        <remote-port value="54807"/>
    </traci_server>

    <random_number>
        <seed value="19"/>
    </random_number>

    <gui_only>
        <tracker-interval value="0.1"/>
    </gui_only>

</configuration>
-->

<tripinfos xmlns:xsi="http://www.w3.org/2001/XMLSchema-instance" xsi:noNamespaceSchemaLocation="http://sumo.dlr.de/xsd/tripinfo_file.xsd">
    <tripinfo id="NS.cav.3" depart="4.90" departLane="E1_2" departPos="5.10" departSpeed="17.11" departDelay="0.00" arrival="55.80" arrivalLane="E3_1" arrivalPos="483.00" arrivalSpeed="23.44" duration="50.90" routeLength="995.04" waitingTime="0.00" waitingCount="0" stopTime="0.00" timeLoss="8.39" rerouteNo="1" devices="tripinfo_NS.cav.3 routing_NS.cav.3" vType="cav" speedFactor="1.17" vaporized=""/>
    <tripinfo id="SN.cav.0" depart="1.10" departLane="-E3_1" departPos="5.10" departSpeed="23.07" departDelay="0.00" arrival="56.00" arrivalLane="-E1_1" arrivalPos="483.27" arrivalSpeed="23.06" duration="54.90" routeLength="995.03" waitingTime="0.40" waitingCount="1" stopTime="0.00" timeLoss="11.73" rerouteNo="1" devices="tripinfo_SN.cav.0 routing_SN.cav.0" vType="cav" speedFactor="1.15" vaporized=""/>
    <tripinfo id="NS.cav.0" depart="0.80" departLane="E1_1" departPos="5.10" departSpeed="18.34" departDelay="0.00" arrival="57.60" arrivalLane="E3_0" arrivalPos="483.00" arrivalSpeed="18.34" duration="56.80" routeLength="995.04" waitingTime="0.00" waitingCount="0" stopTime="0.00" timeLoss="2.51" rerouteNo="1" devices="tripinfo_NS.cav.0 routing_NS.cav.0" vType="cav" speedFactor="0.91" vaporized=""/>
    <tripinfo id="SN.cav.1" depart="2.90" departLane="-E3_2" departPos="5.10" departSpeed="18.16" departDelay="0.00" arrival="58.60" arrivalLane="-E1_0" arrivalPos="483.27" arrivalSpeed="18.16" duration="55.70" routeLength="995.03" waitingTime="0.00" waitingCount="0" stopTime="0.00" timeLoss="0.83" rerouteNo="1" devices="tripinfo_SN.cav.1 routing_SN.cav.1" vType="cav" speedFactor="0.90" vaporized=""/>
    <tripinfo id="NS.cav.2" depart="4.80" departLane="E1_1" departPos="5.10" departSpeed="20.81" departDelay="0.00" arrival="60.10" arrivalLane="E3_1" arrivalPos="483.00" arrivalSpeed="20.79" duration="55.30" routeLength="995.04" waitingTime="0.00" waitingCount="0" stopTime="0.00" timeLoss="7.43" rerouteNo="1" devices="tripinfo_NS.cav.2 routing_NS.cav.2" vType="cav" speedFactor="1.03" vaporized=""/>
    <tripinfo id="SN.cav.3" depart="9.60" departLane="-E3_2" departPos="5.10" departSpeed="20.10" departDelay="0.00" arrival="60.40" arrivalLane="-E1_1" arrivalPos="483.27" arrivalSpeed="20.09" duration="50.80" routeLength="995.03" waitingTime="0.00" waitingCount="0" stopTime="0.00" timeLoss="1.27" rerouteNo="1" devices="tripinfo_SN.cav.3 routing_SN.cav.3" vType="cav" speedFactor="1.00" vaporized=""/>
    <tripinfo id="NS.cav.1" depart="4.10" departLane="E1_2" departPos="5.10" departSpeed="17.76" departDelay="0.00" arrival="61.40" arrivalLane="E3_0" arrivalPos="483.00" arrivalSpeed="17.71" duration="57.30" routeLength="995.04" waitingTime="0.00" waitingCount="0" stopTime="0.00" timeLoss="1.18" rerouteNo="1" devices="tripinfo_NS.cav.1 routing_NS.cav.1" vType="cav" speedFactor="0.88" vaporized=""/>
    <tripinfo id="SN.cav.2" depart="3.90" departLane="-E3_1" departPos="5.10" departSpeed="18.88" departDelay="0.00" arrival="61.70" arrivalLane="-E1_0" arrivalPos="483.27" arrivalSpeed="18.74" duration="57.80" routeLength="995.03" waitingTime="0.00" waitingCount="0" stopTime="0.00" timeLoss="5.03" rerouteNo="1" devices="tripinfo_SN.cav.2 routing_SN.cav.2" vType="cav" speedFactor="0.94" vaporized=""/>
    <tripinfo id="SN.cav.4" depart="11.80" departLane="-E3_1" departPos="5.10" departSpeed="24.05" departDelay="0.00" arrival="62.10" arrivalLane="-E1_1" arrivalPos="483.27" arrivalSpeed="21.85" duration="50.30" routeLength="995.03" waitingTime="0.00" waitingCount="0" stopTime="0.00" timeLoss="8.90" rerouteNo="1" devices="tripinfo_SN.cav.4 routing_SN.cav.4" vType="cav" speedFactor="1.20" vaporized=""/>
    <tripinfo id="NS.cav.4" depart="6.70" departLane="E1_1" departPos="5.10" departSpeed="19.89" departDelay="0.00" arrival="63.50" arrivalLane="E3_0" arrivalPos="483.00" arrivalSpeed="19.44" duration="56.80" routeLength="995.04" waitingTime="0.00" waitingCount="0" stopTime="0.00" timeLoss="7.62" rerouteNo="1" devices="tripinfo_NS.cav.4 routing_NS.cav.4" vType="cav" speedFactor="1.01" vaporized=""/>
    <tripinfo id="NS.cav.5" depart="11.60" departLane="E1_2" departPos="5.10" departSpeed="19.28" departDelay="0.00" arrival="64.30" arrivalLane="E3_1" arrivalPos="483.00" arrivalSpeed="19.25" duration="52.70" routeLength="995.04" waitingTime="0.00" waitingCount="0" stopTime="0.00" timeLoss="1.02" rerouteNo="1" devices="tripinfo_NS.cav.5 routing_NS.cav.5" vType="cav" speedFactor="0.96" vaporized=""/>
    <tripinfo id="SE.cav.0" depart="5.20" departLane="-E3_0" departPos="5.10" departSpeed="19.30" departDelay="0.00" arrival="70.60" arrivalLane="E2_0" arrivalPos="489.88" arrivalSpeed="15.01" duration="65.40" routeLength="976.94" waitingTime="0.00" waitingCount="0" stopTime="0.00" timeLoss="6.43" rerouteNo="1" devices="tripinfo_SE.cav.0 routing_SE.cav.0" vType="cav" speedFactor="0.96" vaporized=""/>
    <tripinfo id="WN.cav.0" depart="10.80" departLane="E0_2" departPos="5.10" departSpeed="19.21" departDelay="0.00" arrival="72.40" arrivalLane="-E1_1" arrivalPos="483.27" arrivalSpeed="24.69" duration="61.60" routeLength="994.74" waitingTime="4.00" waitingCount="1" stopTime="0.00" timeLoss="14.84" rerouteNo="1" devices="tripinfo_WN.cav.0 routing_WN.cav.0" vType="cav" speedFactor="1.23" vaporized=""/>
    <tripinfo id="SE.cav.1" depart="13.90" departLane="-E3_0" departPos="5.10" departSpeed="21.78" departDelay="0.00" arrival="73.00" arrivalLane="E2_0" arrivalPos="489.88" arrivalSpeed="16.58" duration="59.10" routeLength="976.94" waitingTime="0.00" waitingCount="0" stopTime="0.00" timeLoss="6.85" rerouteNo="1" devices="tripinfo_SE.cav.1 routing_SE.cav.1" vType="cav" speedFactor="1.08" vaporized=""/>
    <tripinfo id="NW.cav.0" depart="6.90" departLane="E1_0" departPos="5.10" departSpeed="18.21" departDelay="0.00" arrival="74.10" arrivalLane="-E0_0" arrivalPos="483.33" arrivalSpeed="14.16" duration="67.20" routeLength="970.93" waitingTime="0.00" waitingCount="0" stopTime="0.00" timeLoss="5.14" rerouteNo="1" devices="tripinfo_NW.cav.0 routing_NW.cav.0" vType="cav" speedFactor="0.90" vaporized=""/>
    <tripinfo id="EN.cav.0" depart="9.30" departLane="-E2_0" departPos="5.10" departSpeed="14.81" departDelay="0.00" arrival="74.50" arrivalLane="-E1_0" arrivalPos="483.27" arrivalSpeed="19.04" duration="65.20" routeLength="980.61" waitingTime="0.00" waitingCount="0" stopTime="0.00" timeLoss="5.32" rerouteNo="1" devices="tripinfo_EN.cav.0 routing_EN.cav.0" vType="cav" speedFactor="0.95" vaporized=""/>
    <tripinfo id="WE.cav.1" depart="13.30" departLane="E0_1" departPos="5.10" departSpeed="17.73" departDelay="0.00" arrival="77.50" arrivalLane="E2_0" arrivalPos="489.88" arrivalSpeed="17.73" duration="64.20" routeLength="1001.01" waitingTime="0.00" waitingCount="0" stopTime="0.00" timeLoss="7.76" rerouteNo="1" devices="tripinfo_WE.cav.1 routing_WE.cav.1" vType="cav" speedFactor="1.13" vaporized=""/>
    <tripinfo id="WE.cav.0" depart="13.20" departLane="E0_0" departPos="5.10" departSpeed="16.66" departDelay="0.00" arrival="78.90" arrivalLane="E2_0" arrivalPos="489.88" arrivalSpeed="16.45" duration="65.70" routeLength="1001.01" waitingTime="0.00" waitingCount="0" stopTime="0.00" timeLoss="5.54" rerouteNo="1" devices="tripinfo_WE.cav.0 routing_WE.cav.0" vType="cav" speedFactor="1.06" vaporized=""/>
    <tripinfo id="SE.cav.2" depart="14.40" departLane="-E3_0" departPos="5.10" departSpeed="17.62" departDelay="0.00" arrival="83.80" arrivalLane="E2_0" arrivalPos="489.88" arrivalSpeed="16.16" duration="69.40" routeLength="976.94" waitingTime="3.60" waitingCount="2" stopTime="0.00" timeLoss="14.78" rerouteNo="1" devices="tripinfo_SE.cav.2 routing_SE.cav.2" vType="cav" speedFactor="1.03" vaporized=""/>
    <tripinfo id="WE.cav.2" depart="16.30" departLane="E0_1" departPos="5.10" departSpeed="15.73" departDelay="0.00" arrival="85.30" arrivalLane="E2_1" arrivalPos="489.88" arrivalSpeed="15.73" duration="69.00" routeLength="1001.01" waitingTime="0.00" waitingCount="0" stopTime="0.00" timeLoss="5.36" rerouteNo="1" devices="tripinfo_WE.cav.2 routing_WE.cav.2" vType="cav" speedFactor="1.01" vaporized=""/>
    <tripinfo id="EW.cav.0" depart="6.30" departLane="-E2_0" departPos="5.10" departSpeed="18.96" departDelay="0.00" arrival="85.70" arrivalLane="-E0_0" arrivalPos="483.33" arrivalSpeed="18.96" duration="79.40" routeLength="1001.02" waitingTime="17.90" waitingCount="1" stopTime="0.00" timeLoss="26.62" rerouteNo="1" devices="tripinfo_EW.cav.0 routing_EW.cav.0" vType="cav" speedFactor="1.21" vaporized=""/>
    <tripinfo id="WE.cav.3" depart="23.30" departLane="E0_1" departPos="5.10" departSpeed="16.78" departDelay="0.00" arrival="86.50" arrivalLane="E2_0" arrivalPos="489.88" arrivalSpeed="16.60" duration="63.20" routeLength="1001.01" waitingTime="0.00" waitingCount="0" stopTime="0.00" timeLoss="3.54" rerouteNo="1" devices="tripinfo_WE.cav.3 routing_WE.cav.3" vType="cav" speedFactor="1.07" vaporized=""/>
    <tripinfo id="WS.cav.1" depart="24.00" departLane="E0_0" departPos="5.10" departSpeed="15.25" departDelay="0.00" arrival="92.40" arrivalLane="E3_1" arrivalPos="483.00" arrivalSpeed="21.98" duration="68.40" routeLength="974.37" waitingTime="0.00" waitingCount="0" stopTime="0.00" timeLoss="16.91" rerouteNo="1" devices="tripinfo_WS.cav.1 routing_WS.cav.1" vType="cav" speedFactor="1.09" vaporized=""/>
    <tripinfo id="EW.cav.2" depart="31.00" departLane="-E2_0" departPos="5.10" departSpeed="16.48" departDelay="0.00" arrival="92.50" arrivalLane="-E0_0" arrivalPos="483.33" arrivalSpeed="16.48" duration="61.50" routeLength="1001.02" waitingTime="0.00" waitingCount="0" stopTime="0.00" timeLoss="0.73" rerouteNo="1" devices="tripinfo_EW.cav.2 routing_EW.cav.2" vType="cav" speedFactor="1.05" vaporized=""/>
    <tripinfo id="WS.cav.0" depart="22.80" departLane="E0_0" departPos="5.10" departSpeed="13.27" departDelay="0.00" arrival="93.10" arrivalLane="E3_0" arrivalPos="483.00" arrivalSpeed="17.07" duration="70.30" routeLength="974.37" waitingTime="0.00" waitingCount="0" stopTime="0.00" timeLoss="3.96" rerouteNo="1" devices="tripinfo_WS.cav.0 routing_WS.cav.0" vType="cav" speedFactor="0.85" vaporized=""/>
    <tripinfo id="SE.cav.3" depart="35.20" departLane="-E3_0" departPos="5.10" departSpeed="20.32" departDelay="0.00" arrival="97.90" arrivalLane="E2_0" arrivalPos="489.88" arrivalSpeed="15.80" duration="62.70" routeLength="976.94" waitingTime="0.00" waitingCount="0" stopTime="0.00" timeLoss="6.71" rerouteNo="1" devices="tripinfo_SE.cav.3 routing_SE.cav.3" vType="cav" speedFactor="1.01" vaporized=""/>
    <tripinfo id="NW.cav.1" depart="37.10" departLane="E1_0" departPos="5.10" departSpeed="20.23" departDelay="0.00" arrival="97.90" arrivalLane="-E0_0" arrivalPos="483.33" arrivalSpeed="15.73" duration="60.80" routeLength="970.93" waitingTime="0.00" waitingCount="0" stopTime="0.00" timeLoss="4.96" rerouteNo="1" devices="tripinfo_NW.cav.1 routing_NW.cav.1" vType="cav" speedFactor="1.01" vaporized=""/>
    <tripinfo id="EW.cav.5" depart="39.50" departLane="-E2_1" departPos="5.10" departSpeed="16.47" departDelay="0.00" arrival="100.40" arrivalLane="-E0_0" arrivalPos="483.33" arrivalSpeed="16.47" duration="60.90" routeLength="1001.02" waitingTime="0.00" waitingCount="0" stopTime="0.00" timeLoss="0.07" rerouteNo="1" devices="tripinfo_EW.cav.5 routing_EW.cav.5" vType="cav" speedFactor="1.05" vaporized=""/>
    <tripinfo id="WE.cav.4" depart="31.00" departLane="E0_1" departPos="5.10" departSpeed="14.52" departDelay="0.00" arrival="101.60" arrivalLane="E2_0" arrivalPos="489.88" arrivalSpeed="14.50" duration="70.60" routeLength="1001.01" waitingTime="0.00" waitingCount="0" stopTime="0.00" timeLoss="1.58" rerouteNo="1" devices="tripinfo_WE.cav.4 routing_WE.cav.4" vType="cav" speedFactor="0.93" vaporized=""/>
    <tripinfo id="EW.cav.1" depart="29.50" departLane="-E2_1" departPos="5.10" departSpeed="14.14" departDelay="0.00" arrival="103.30" arrivalLane="-E0_0" arrivalPos="483.33" arrivalSpeed="14.11" duration="73.80" routeLength="1001.02" waitingTime="0.00" waitingCount="0" stopTime="0.00" timeLoss="3.00" rerouteNo="1" devices="tripinfo_EW.cav.1 routing_EW.cav.1" vType="cav" speedFactor="0.90" vaporized=""/>
    <tripinfo id="EW.cav.4" depart="36.20" departLane="-E2_0" departPos="5.10" departSpeed="16.83" departDelay="0.00" arrival="103.90" arrivalLane="-E0_1" arrivalPos="483.33" arrivalSpeed="16.80" duration="67.70" routeLength="1001.02" waitingTime="0.00" waitingCount="0" stopTime="0.00" timeLoss="8.20" rerouteNo="1" devices="tripinfo_EW.cav.4 routing_EW.cav.4" vType="cav" speedFactor="1.08" vaporized=""/>
    <tripinfo id="WE.cav.6" depart="44.60" departLane="E0_1" departPos="5.10" departSpeed="17.49" departDelay="0.00" arrival="103.90" arrivalLane="E2_1" arrivalPos="489.88" arrivalSpeed="17.49" duration="59.30" routeLength="1001.01" waitingTime="0.00" waitingCount="0" stopTime="0.00" timeLoss="2.04" rerouteNo="1" devices="tripinfo_WE.cav.6 routing_WE.cav.6" vType="cav" speedFactor="1.12" vaporized=""/>
    <tripinfo id="WE.cav.5" depart="32.70" departLane="E0_0" departPos="5.10" departSpeed="14.51" departDelay="0.00" arrival="104.90" arrivalLane="E2_0" arrivalPos="489.88" arrivalSpeed="14.46" duration="72.20" routeLength="1001.01" waitingTime="0.00" waitingCount="0" stopTime="0.00" timeLoss="3.14" rerouteNo="1" devices="tripinfo_WE.cav.5 routing_WE.cav.5" vType="cav" speedFactor="0.93" vaporized=""/>
    <tripinfo id="EW.cav.3" depart="32.40" departLane="-E2_1" departPos="5.10" departSpeed="14.57" departDelay="0.00" arrival="106.20" arrivalLane="-E0_0" arrivalPos="483.33" arrivalSpeed="14.47" duration="73.80" routeLength="1001.02" waitingTime="0.00" waitingCount="0" stopTime="0.00" timeLoss="5.02" rerouteNo="1" devices="tripinfo_EW.cav.3 routing_EW.cav.3" vType="cav" speedFactor="0.93" vaporized=""/>
    <tripinfo id="SE.cav.4" depart="45.80" departLane="-E3_0" departPos="5.10" departSpeed="19.53" departDelay="0.00" arrival="113.50" arrivalLane="E2_0" arrivalPos="489.88" arrivalSpeed="15.19" duration="67.70" routeLength="976.94" waitingTime="1.70" waitingCount="1" stopTime="0.00" timeLoss="9.55" rerouteNo="1" devices="tripinfo_SE.cav.4 routing_SE.cav.4" vType="cav" speedFactor="0.97" vaporized=""/>
    <tripinfo id="NS.cav.6" depart="26.60" departLane="E1_1" departPos="5.10" departSpeed="20.38" departDelay="0.00" arrival="116.60" arrivalLane="E3_0" arrivalPos="483.00" arrivalSpeed="20.38" duration="90.00" routeLength="995.04" waitingTime="32.00" waitingCount="1" stopTime="0.00" timeLoss="41.15" rerouteNo="1" devices="tripinfo_NS.cav.6 routing_NS.cav.6" vType="cav" speedFactor="1.01" vaporized=""/>
    <tripinfo id="NE.cav.0" depart="31.70" departLane="E1_3" departPos="5.10" departSpeed="18.60" departDelay="0.00" arrival="117.10" arrivalLane="E2_0" arrivalPos="489.88" arrivalSpeed="14.44" duration="85.40" routeLength="1002.68" waitingTime="14.90" waitingCount="1" stopTime="0.00" timeLoss="22.80" rerouteNo="1" devices="tripinfo_NE.cav.0 routing_NE.cav.0" vType="cav" speedFactor="0.92" vaporized=""/>
    <tripinfo id="NE.cav.1" depart="34.50" departLane="E1_3" departPos="5.10" departSpeed="20.73" departDelay="0.00" arrival="117.10" arrivalLane="E2_1" arrivalPos="489.88" arrivalSpeed="16.12" duration="82.60" routeLength="1002.68" waitingTime="13.70" waitingCount="1" stopTime="0.00" timeLoss="26.34" rerouteNo="1" devices="tripinfo_NE.cav.1 routing_NE.cav.1" vType="cav" speedFactor="1.03" vaporized=""/>
    <tripinfo id="NS.cav.7" depart="31.00" departLane="E1_1" departPos="5.10" departSpeed="19.32" departDelay="0.00" arrival="117.80" arrivalLane="E3_1" arrivalPos="483.00" arrivalSpeed="19.32" duration="86.80" routeLength="995.04" waitingTime="26.40" waitingCount="1" stopTime="0.00" timeLoss="35.23" rerouteNo="1" devices="tripinfo_NS.cav.7 routing_NS.cav.7" vType="cav" speedFactor="0.96" vaporized=""/>
    <tripinfo id="SW.cav.0" depart="27.60" departLane="-E3_3" departPos="5.10" departSpeed="17.08" departDelay="0.00" arrival="119.20" arrivalLane="-E0_0" arrivalPos="483.33" arrivalSpeed="13.29" duration="91.60" routeLength="995.53" waitingTime="16.80" waitingCount="1" stopTime="0.00" timeLoss="23.88" rerouteNo="1" devices="tripinfo_SW.cav.0 routing_SW.cav.0" vType="cav" speedFactor="0.85" vaporized=""/>
    <tripinfo id="NS.cav.8" depart="35.80" departLane="E1_2" departPos="5.10" departSpeed="21.23" departDelay="0.00" arrival="119.90" arrivalLane="E3_1" arrivalPos="483.00" arrivalSpeed="20.48" duration="84.10" routeLength="995.04" waitingTime="21.60" waitingCount="1" stopTime="0.00" timeLoss="37.23" rerouteNo="1" devices="tripinfo_NS.cav.8 routing_NS.cav.8" vType="cav" speedFactor="1.06" vaporized=""/>
    <tripinfo id="SN.cav.5" depart="22.80" departLane="-E3_1" departPos="5.10" departSpeed="20.53" departDelay="0.00" arrival="120.30" arrivalLane="-E1_0" arrivalPos="483.27" arrivalSpeed="20.53" duration="97.50" routeLength="995.03" waitingTime="39.70" waitingCount="1" stopTime="0.00" timeLoss="48.97" rerouteNo="1" devices="tripinfo_SN.cav.5 routing_SN.cav.5" vType="cav" speedFactor="1.02" vaporized=""/>
    <tripinfo id="SN.cav.6" depart="25.40" departLane="-E3_2" departPos="5.10" departSpeed="20.33" departDelay="0.00" arrival="120.50" arrivalLane="-E1_0" arrivalPos="483.27" arrivalSpeed="20.33" duration="95.10" routeLength="995.03" waitingTime="36.30" waitingCount="1" stopTime="0.00" timeLoss="46.09" rerouteNo="1" devices="tripinfo_SN.cav.6 routing_SN.cav.6" vType="cav" speedFactor="1.01" vaporized=""/>
    <tripinfo id="NS.cav.9" depart="37.70" departLane="E1_1" departPos="5.10" departSpeed="19.34" departDelay="0.00" arrival="120.50" arrivalLane="E3_0" arrivalPos="483.00" arrivalSpeed="19.30" duration="82.80" routeLength="995.04" waitingTime="14.90" waitingCount="2" stopTime="0.00" timeLoss="31.28" rerouteNo="1" devices="tripinfo_NS.cav.9 routing_NS.cav.9" vType="cav" speedFactor="0.96" vaporized=""/>
    <tripinfo id="NE.cav.2" depart="46.90" departLane="E1_3" departPos="5.10" departSpeed="18.82" departDelay="0.00" arrival="121.80" arrivalLane="E2_0" arrivalPos="489.88" arrivalSpeed="14.63" duration="74.90" routeLength="1002.68" waitingTime="2.00" waitingCount="1" stopTime="0.00" timeLoss="13.01" rerouteNo="1" devices="tripinfo_NE.cav.2 routing_NE.cav.2" vType="cav" speedFactor="0.94" vaporized=""/>
    <tripinfo id="NS.cav.10" depart="42.70" departLane="E1_1" departPos="5.10" departSpeed="21.97" departDelay="0.00" arrival="121.90" arrivalLane="E3_1" arrivalPos="483.00" arrivalSpeed="20.92" duration="79.20" routeLength="995.04" waitingTime="14.70" waitingCount="1" stopTime="0.00" timeLoss="33.87" rerouteNo="1" devices="tripinfo_NS.cav.10 routing_NS.cav.10" vType="cav" speedFactor="1.09" vaporized=""/>
    <tripinfo id="SN.cav.7" depart="30.80" departLane="-E3_1" departPos="5.10" departSpeed="21.22" departDelay="0.00" arrival="123.00" arrivalLane="-E1_1" arrivalPos="483.27" arrivalSpeed="20.88" duration="92.20" routeLength="995.03" waitingTime="30.60" waitingCount="1" stopTime="0.00" timeLoss="45.30" rerouteNo="1" devices="tripinfo_SN.cav.7 routing_SN.cav.7" vType="cav" speedFactor="1.05" vaporized=""/>
    <tripinfo id="SN.cav.9" depart="31.20" departLane="-E3_1" departPos="5.10" departSpeed="11.15" departDelay="0.10" arrival="123.40" arrivalLane="-E1_0" arrivalPos="483.27" arrivalSpeed="20.27" duration="92.20" routeLength="995.03" waitingTime="27.70" waitingCount="1" stopTime="0.00" timeLoss="43.45" rerouteNo="1" devices="tripinfo_SN.cav.9 routing_SN.cav.9" vType="cav" speedFactor="1.02" vaporized=""/>
    <tripinfo id="NS.cav.11" depart="46.90" departLane="E1_1" departPos="5.10" departSpeed="17.93" departDelay="0.00" arrival="124.40" arrivalLane="E3_0" arrivalPos="483.00" arrivalSpeed="17.91" duration="77.50" routeLength="995.04" waitingTime="6.70" waitingCount="1" stopTime="0.00" timeLoss="22.01" rerouteNo="1" devices="tripinfo_NS.cav.11 routing_NS.cav.11" vType="cav" speedFactor="0.89" vaporized=""/>
    <tripinfo id="NS.cav.12" depart="50.40" departLane="E1_2" departPos="5.10" departSpeed="19.90" departDelay="0.00" arrival="124.60" arrivalLane="E3_1" arrivalPos="483.00" arrivalSpeed="19.68" duration="74.20" routeLength="995.04" waitingTime="7.80" waitingCount="1" stopTime="0.00" timeLoss="24.17" rerouteNo="1" devices="tripinfo_NS.cav.12 routing_NS.cav.12" vType="cav" speedFactor="0.99" vaporized=""/>
    <tripinfo id="SN.cav.8" depart="31.00" departLane="-E3_2" departPos="5.10" departSpeed="21.41" departDelay="0.00" arrival="125.40" arrivalLane="-E1_1" arrivalPos="483.27" arrivalSpeed="20.92" duration="94.40" routeLength="995.03" waitingTime="30.00" waitingCount="1" stopTime="0.00" timeLoss="47.84" rerouteNo="1" devices="tripinfo_SN.cav.8 routing_SN.cav.8" vType="cav" speedFactor="1.06" vaporized=""/>
    <tripinfo id="NS.cav.14" depart="64.20" departLane="E1_2" departPos="5.10" departSpeed="22.47" departDelay="0.00" arrival="126.40" arrivalLane="E3_1" arrivalPos="483.00" arrivalSpeed="20.83" duration="62.20" routeLength="995.04" waitingTime="0.00" waitingCount="0" stopTime="0.00" timeLoss="17.86" rerouteNo="1" devices="tripinfo_NS.cav.14 routing_NS.cav.14" vType="cav" speedFactor="1.12" vaporized=""/>
    <tripinfo id="NS.cav.13" depart="52.10" departLane="E1_1" departPos="5.10" departSpeed="19.33" departDelay="0.00" arrival="126.60" arrivalLane="E3_0" arrivalPos="483.00" arrivalSpeed="18.75" duration="74.50" routeLength="995.04" waitingTime="5.00" waitingCount="1" stopTime="0.00" timeLoss="22.99" rerouteNo="1" devices="tripinfo_NS.cav.13 routing_NS.cav.13" vType="cav" speedFactor="0.96" vaporized=""/>
    <tripinfo id="NW.cav.2" depart="62.30" departLane="E1_0" departPos="5.10" departSpeed="18.81" departDelay="0.00" arrival="126.80" arrivalLane="-E0_0" arrivalPos="483.33" arrivalSpeed="14.63" duration="64.50" routeLength="970.93" waitingTime="0.00" waitingCount="0" stopTime="0.00" timeLoss="4.38" rerouteNo="1" devices="tripinfo_NW.cav.2 routing_NW.cav.2" vType="cav" speedFactor="0.93" vaporized=""/>
    <tripinfo id="SN.cav.10" depart="39.70" departLane="-E3_2" departPos="5.10" departSpeed="21.17" departDelay="0.00" arrival="127.70" arrivalLane="-E1_1" arrivalPos="483.27" arrivalSpeed="20.67" duration="88.00" routeLength="995.03" waitingTime="26.50" waitingCount="1" stopTime="0.00" timeLoss="40.90" rerouteNo="1" devices="tripinfo_SN.cav.10 routing_SN.cav.10" vType="cav" speedFactor="1.05" vaporized=""/>
    <tripinfo id="NS.cav.15" depart="64.70" departLane="E1_1" departPos="5.10" departSpeed="21.10" departDelay="0.00" arrival="128.40" arrivalLane="E3_0" arrivalPos="483.00" arrivalSpeed="19.58" duration="63.70" routeLength="995.04" waitingTime="0.00" waitingCount="0" stopTime="0.00" timeLoss="16.49" rerouteNo="1" devices="tripinfo_NS.cav.15 routing_NS.cav.15" vType="cav" speedFactor="1.05" vaporized=""/>
    <tripinfo id="NS.cav.16" depart="73.20" departLane="E1_2" departPos="5.10" departSpeed="20.77" departDelay="0.00" arrival="128.50" arrivalLane="E3_1" arrivalPos="483.00" arrivalSpeed="20.11" duration="55.30" routeLength="995.04" waitingTime="0.00" waitingCount="0" stopTime="0.00" timeLoss="7.38" rerouteNo="1" devices="tripinfo_NS.cav.16 routing_NS.cav.16" vType="cav" speedFactor="1.03" vaporized=""/>
    <tripinfo id="SN.cav.12" depart="49.00" departLane="-E3_2" departPos="5.10" departSpeed="17.28" departDelay="0.00" arrival="128.80" arrivalLane="-E1_0" arrivalPos="483.27" arrivalSpeed="17.28" duration="79.80" routeLength="995.03" waitingTime="11.60" waitingCount="1" stopTime="0.00" timeLoss="22.17" rerouteNo="1" devices="tripinfo_SN.cav.12 routing_SN.cav.12" vType="cav" speedFactor="0.86" vaporized=""/>
    <tripinfo id="SN.cav.13" depart="50.50" departLane="-E3_1" departPos="5.10" departSpeed="21.18" departDelay="0.00" arrival="129.80" arrivalLane="-E1_1" arrivalPos="483.27" arrivalSpeed="20.54" duration="79.30" routeLength="995.03" waitingTime="12.10" waitingCount="1" stopTime="0.00" timeLoss="32.31" rerouteNo="1" devices="tripinfo_SN.cav.13 routing_SN.cav.13" vType="cav" speedFactor="1.05" vaporized=""/>
    <tripinfo id="NS.cav.17" depart="76.60" departLane="E1_1" departPos="5.10" departSpeed="21.45" departDelay="0.00" arrival="130.40" arrivalLane="E3_1" arrivalPos="483.00" arrivalSpeed="20.35" duration="53.80" routeLength="995.04" waitingTime="0.00" waitingCount="0" stopTime="0.00" timeLoss="7.39" rerouteNo="1" devices="tripinfo_NS.cav.17 routing_NS.cav.17" vType="cav" speedFactor="1.07" vaporized=""/>
    <tripinfo id="SN.cav.11" depart="47.70" departLane="-E3_1" departPos="5.10" departSpeed="21.85" departDelay="0.00" arrival="130.50" arrivalLane="-E1_0" arrivalPos="483.27" arrivalSpeed="19.49" duration="82.80" routeLength="995.03" waitingTime="14.50" waitingCount="2" stopTime="0.00" timeLoss="37.23" rerouteNo="1" devices="tripinfo_SN.cav.11 routing_SN.cav.11" vType="cav" speedFactor="1.09" vaporized=""/>
    <tripinfo id="WS.cav.2" depart="57.80" departLane="E0_0" departPos="5.10" departSpeed="17.43" departDelay="0.00" arrival="132.20" arrivalLane="E3_1" arrivalPos="483.00" arrivalSpeed="20.77" duration="74.40" routeLength="974.37" waitingTime="11.20" waitingCount="1" stopTime="0.00" timeLoss="23.85" rerouteNo="1" devices="tripinfo_WS.cav.2 routing_WS.cav.2" vType="cav" speedFactor="1.11" vaporized=""/>
    <tripinfo id="SN.cav.14" depart="52.60" departLane="-E3_1" departPos="5.10" departSpeed="20.02" departDelay="0.00" arrival="132.40" arrivalLane="-E1_1" arrivalPos="483.27" arrivalSpeed="19.73" duration="79.80" routeLength="995.03" waitingTime="11.70" waitingCount="1" stopTime="0.00" timeLoss="30.02" rerouteNo="1" devices="tripinfo_SN.cav.14 routing_SN.cav.14" vType="cav" speedFactor="1.00" vaporized=""/>
    <tripinfo id="SN.cav.15" depart="56.60" departLane="-E3_1" departPos="5.10" departSpeed="19.13" departDelay="0.00" arrival="132.60" arrivalLane="-E1_0" arrivalPos="483.27" arrivalSpeed="18.54" duration="76.00" routeLength="995.03" waitingTime="3.90" waitingCount="1" stopTime="0.00" timeLoss="24.00" rerouteNo="1" devices="tripinfo_SN.cav.15 routing_SN.cav.15" vType="cav" speedFactor="0.95" vaporized=""/>
    <tripinfo id="SN.cav.17" depart="62.70" departLane="-E3_2" departPos="5.10" departSpeed="19.53" departDelay="0.00" arrival="134.90" arrivalLane="-E1_1" arrivalPos="483.27" arrivalSpeed="19.24" duration="72.20" routeLength="995.03" waitingTime="5.60" waitingCount="1" stopTime="0.00" timeLoss="21.18" rerouteNo="1" devices="tripinfo_SN.cav.17 routing_SN.cav.17" vType="cav" speedFactor="0.97" vaporized=""/>
    <tripinfo id="SN.cav.16" depart="61.70" departLane="-E3_1" departPos="5.10" departSpeed="16.68" departDelay="0.00" arrival="136.20" arrivalLane="-E1_0" arrivalPos="483.27" arrivalSpeed="16.64" duration="74.50" routeLength="995.03" waitingTime="2.10" waitingCount="1" stopTime="0.00" timeLoss="14.84" rerouteNo="1" devices="tripinfo_SN.cav.16 routing_SN.cav.16" vType="cav" speedFactor="0.83" vaporized=""/>
    <tripinfo id="NS.cav.18" depart="84.90" departLane="E1_1" departPos="5.10" departSpeed="19.48" departDelay="0.00" arrival="136.50" arrivalLane="E3_1" arrivalPos="483.00" arrivalSpeed="19.45" duration="51.60" routeLength="995.04" waitingTime="0.00" waitingCount="0" stopTime="0.00" timeLoss="0.52" rerouteNo="1" devices="tripinfo_NS.cav.18 routing_NS.cav.18" vType="cav" speedFactor="0.97" vaporized=""/>
    <tripinfo id="SN.cav.19" depart="77.90" departLane="-E3_1" departPos="5.10" departSpeed="19.69" departDelay="0.00" arrival="137.10" arrivalLane="-E1_1" arrivalPos="483.27" arrivalSpeed="19.19" duration="59.20" routeLength="995.03" waitingTime="0.00" waitingCount="0" stopTime="0.00" timeLoss="8.65" rerouteNo="1" devices="tripinfo_SN.cav.19 routing_SN.cav.19" vType="cav" speedFactor="0.98" vaporized=""/>
    <tripinfo id="SN.cav.18" depart="74.20" departLane="-E3_2" departPos="5.10" departSpeed="19.47" departDelay="0.00" arrival="138.10" arrivalLane="-E1_0" arrivalPos="483.27" arrivalSpeed="18.20" duration="63.90" routeLength="995.03" waitingTime="0.00" waitingCount="0" stopTime="0.00" timeLoss="12.72" rerouteNo="1" devices="tripinfo_SN.cav.18 routing_SN.cav.18" vType="cav" speedFactor="0.97" vaporized=""/>
    <tripinfo id="WS.cav.3" depart="60.00" departLane="E0_0" departPos="5.10" departSpeed="16.77" departDelay="0.00" arrival="138.80" arrivalLane="E3_1" arrivalPos="483.00" arrivalSpeed="20.91" duration="78.80" routeLength="974.37" waitingTime="11.20" waitingCount="2" stopTime="0.00" timeLoss="26.29" rerouteNo="1" devices="tripinfo_WS.cav.3 routing_WS.cav.3" vType="cav" speedFactor="1.07" vaporized=""/>