<?xml version="1.0" encoding="UTF-8"?>

<!-- generated on 2022-12-04 19:07:16 by Eclipse SUMO sumo Version 1.13.0
<configuration xmlns:xsi="http://www.w3.org/2001/XMLSchema-instance" xsi:noNamespaceSchemaLocation="http://sumo.dlr.de/xsd/sumoConfiguration.xsd">

    <input>
        <net-file value="data/Eastway-Central.net.xml"/>
        <route-files value="data/Eastway-Central-offpeak.rou.xml"/>
    </input>

    <output>
        <tripinfo-output value="tripinfo.xml"/>
    </output>

    <time>
        <step-length value="0.1"/>
    </time>

    <report>
        <verbose value="true"/>
        <log value="logfile.xml"/>
        <duration-log.statistics value="true"/>
    </report>

    <traci_server>
        <remote-port value="62391"/>
    </traci_server>

    <random_number>
        <seed value="19"/>
    </random_number>

    <gui_only>
        <tracker-interval value="0.1"/>
    </gui_only>

</configuration>
-->

<tripinfos xmlns:xsi="http://www.w3.org/2001/XMLSchema-instance" xsi:noNamespaceSchemaLocation="http://sumo.dlr.de/xsd/tripinfo_file.xsd">
    <tripinfo id="NS.0" depart="3.10" departLane="E1_2" departPos="5.10" departSpeed="23.07" departDelay="0.00" arrival="51.80" arrivalLane="E3_1" arrivalPos="483.00" arrivalSpeed="23.07" duration="48.70" routeLength="995.04" waitingTime="0.00" waitingCount="0" stopTime="0.00" timeLoss="5.47" rerouteNo="1" devices="tripinfo_NS.0 routing_NS.0" vType="car" speedFactor="1.15" vaporized=""/>
    <tripinfo id="SN.1" depart="9.30" departLane="-E3_2" departPos="5.10" departSpeed="23.44" departDelay="0.00" arrival="52.20" arrivalLane="-E1_1" arrivalPos="483.27" arrivalSpeed="23.44" duration="42.90" routeLength="995.03" waitingTime="0.00" waitingCount="0" stopTime="0.00" timeLoss="0.45" rerouteNo="1" devices="tripinfo_SN.1 routing_SN.1" vType="car" speedFactor="1.17" vaporized=""/>
    <tripinfo id="BNS.0" depart="0.00" departLane="E1_1" departPos="12.10" departSpeed="20.12" departDelay="0.00" arrival="57.10" arrivalLane="E3_0" arrivalPos="483.00" arrivalSpeed="20.09" duration="57.10" routeLength="988.04" waitingTime="0.00" waitingCount="0" stopTime="0.00" timeLoss="7.92" rerouteNo="1" devices="tripinfo_BNS.0 routing_BNS.0" vType="bus" speedFactor="1.00" vaporized=""/>
    <tripinfo id="NS.1" depart="4.90" departLane="E1_1" departPos="5.10" departSpeed="18.88" departDelay="0.00" arrival="58.70" arrivalLane="E3_1" arrivalPos="483.00" arrivalSpeed="18.88" duration="53.80" routeLength="995.04" waitingTime="0.00" waitingCount="0" stopTime="0.00" timeLoss="1.02" rerouteNo="1" devices="tripinfo_NS.1 routing_NS.1" vType="car" speedFactor="0.94" vaporized=""/>
    <tripinfo id="SN.0" depart="3.70" departLane="-E3_1" departPos="5.10" departSpeed="18.16" departDelay="0.00" arrival="58.80" arrivalLane="-E1_0" arrivalPos="483.27" arrivalSpeed="18.16" duration="55.10" routeLength="995.03" waitingTime="0.00" waitingCount="0" stopTime="0.00" timeLoss="0.27" rerouteNo="1" devices="tripinfo_SN.0 routing_SN.0" vType="car" speedFactor="0.90" vaporized=""/>
    <tripinfo id="SN.2" depart="12.80" departLane="-E3_1" departPos="5.10" departSpeed="20.25" departDelay="0.00" arrival="62.70" arrivalLane="-E1_0" arrivalPos="483.27" arrivalSpeed="20.16" duration="49.90" routeLength="995.03" waitingTime="0.00" waitingCount="0" stopTime="0.00" timeLoss="0.73" rerouteNo="1" devices="tripinfo_SN.2 routing_SN.2" vType="car" speedFactor="1.01" vaporized=""/>
    <tripinfo id="NS.3" depart="24.10" departLane="E1_1" departPos="5.10" departSpeed="24.70" departDelay="0.00" arrival="68.90" arrivalLane="E3_1" arrivalPos="483.00" arrivalSpeed="24.70" duration="44.80" routeLength="995.04" waitingTime="0.00" waitingCount="0" stopTime="0.00" timeLoss="4.50" rerouteNo="1" devices="tripinfo_NS.3 routing_NS.3" vType="car" speedFactor="1.23" vaporized=""/>
    <tripinfo id="NS.2" depart="22.90" departLane="E1_2" departPos="5.10" departSpeed="20.10" departDelay="0.00" arrival="72.50" arrivalLane="E3_0" arrivalPos="483.00" arrivalSpeed="20.10" duration="49.60" routeLength="995.04" waitingTime="0.00" waitingCount="0" stopTime="0.00" timeLoss="0.03" rerouteNo="1" devices="tripinfo_NS.2 routing_NS.2" vType="car" speedFactor="1.00" vaporized=""/>
    <tripinfo id="NS.5" depart="27.20" departLane="E1_1" departPos="5.10" departSpeed="24.05" departDelay="0.00" arrival="73.10" arrivalLane="E3_1" arrivalPos="483.00" arrivalSpeed="23.99" duration="45.90" routeLength="995.04" waitingTime="0.00" waitingCount="0" stopTime="0.00" timeLoss="4.52" rerouteNo="1" devices="tripinfo_NS.5 routing_NS.5" vType="car" speedFactor="1.20" vaporized=""/>
    <tripinfo id="SN.3" depart="21.90" departLane="-E3_2" departPos="5.10" departSpeed="19.04" departDelay="0.00" arrival="74.20" arrivalLane="-E1_0" arrivalPos="483.27" arrivalSpeed="19.04" duration="52.30" routeLength="995.03" waitingTime="0.00" waitingCount="0" stopTime="0.00" timeLoss="0.04" rerouteNo="1" devices="tripinfo_SN.3 routing_SN.3" vType="car" speedFactor="0.95" vaporized=""/>
    <tripinfo id="NS.4" depart="24.30" departLane="E1_2" departPos="5.10" departSpeed="19.28" departDelay="0.00" arrival="77.40" arrivalLane="E3_0" arrivalPos="483.00" arrivalSpeed="19.26" duration="53.10" routeLength="995.04" waitingTime="0.00" waitingCount="0" stopTime="0.00" timeLoss="1.48" rerouteNo="1" devices="tripinfo_NS.4 routing_NS.4" vType="car" speedFactor="0.96" vaporized=""/>
    <tripinfo id="NS.6" depart="32.60" departLane="E1_1" departPos="5.10" departSpeed="20.23" departDelay="0.00" arrival="82.40" arrivalLane="E3_0" arrivalPos="483.00" arrivalSpeed="20.20" duration="49.80" routeLength="995.04" waitingTime="0.00" waitingCount="0" stopTime="0.00" timeLoss="0.57" rerouteNo="1" devices="tripinfo_NS.6 routing_NS.6" vType="car" speedFactor="1.01" vaporized=""/>
    <tripinfo id="WS.0" depart="12.50" departLane="E0_0" departPos="5.10" departSpeed="18.96" departDelay="0.00" arrival="86.30" arrivalLane="E3_0" arrivalPos="483.00" arrivalSpeed="24.18" duration="73.80" routeLength="974.37" waitingTime="17.60" waitingCount="1" stopTime="0.00" timeLoss="27.29" rerouteNo="1" devices="tripinfo_WS.0 routing_WS.0" vType="car" speedFactor="1.21" vaporized=""/>
    <tripinfo id="SE.0" depart="31.70" departLane="-E3_0" departPos="5.10" departSpeed="21.78" departDelay="0.00" arrival="88.70" arrivalLane="E2_0" arrivalPos="489.88" arrivalSpeed="16.94" duration="57.00" routeLength="976.94" waitingTime="0.00" waitingCount="0" stopTime="0.00" timeLoss="4.79" rerouteNo="1" devices="tripinfo_SE.0 routing_SE.0" vType="car" speedFactor="1.08" vaporized=""/>
    <tripinfo id="WN.1" depart="31.00" departLane="E0_2" departPos="5.10" departSpeed="17.73" departDelay="0.00" arrival="89.50" arrivalLane="-E1_1" arrivalPos="483.27" arrivalSpeed="22.80" duration="58.50" routeLength="990.42" waitingTime="0.00" waitingCount="0" stopTime="0.00" timeLoss="8.08" rerouteNo="1" devices="tripinfo_WN.1 routing_WN.1" vType="car" speedFactor="1.13" vaporized=""/>
    <tripinfo id="ES.1" depart="35.80" departLane="-E2_2" departPos="5.10" departSpeed="17.12" departDelay="0.00" arrival="91.50" arrivalLane="E3_1" arrivalPos="483.00" arrivalSpeed="22.01" duration="55.70" routeLength="997.05" waitingTime="0.00" waitingCount="0" stopTime="0.00" timeLoss="3.06" rerouteNo="1" devices="tripinfo_ES.1 routing_ES.1" vType="car" speedFactor="1.09" vaporized=""/>
    <tripinfo id="WN.0" depart="1.10" departLane="E0_2" departPos="5.10" departSpeed="14.26" departDelay="0.00" arrival="94.70" arrivalLane="-E1_0" arrivalPos="483.27" arrivalSpeed="18.34" duration="93.60" routeLength="994.74" waitingTime="23.30" waitingCount="1" stopTime="0.00" timeLoss="30.71" rerouteNo="1" devices="tripinfo_WN.0 routing_WN.0" vType="car" speedFactor="0.91" vaporized=""/>
    <tripinfo id="ES.0" depart="4.90" departLane="-E2_2" departPos="5.10" departSpeed="13.81" departDelay="0.00" arrival="95.70" arrivalLane="E3_0" arrivalPos="483.00" arrivalSpeed="17.76" duration="90.80" routeLength="1001.38" waitingTime="17.90" waitingCount="1" stopTime="0.00" timeLoss="25.28" rerouteNo="1" devices="tripinfo_ES.0 routing_ES.0" vType="car" speedFactor="0.88" vaporized=""/>
    <tripinfo id="NW.0" depart="27.70" departLane="E1_0" departPos="5.10" departSpeed="17.49" departDelay="0.00" arrival="96.10" arrivalLane="-E0_0" arrivalPos="483.33" arrivalSpeed="13.61" duration="68.40" routeLength="970.93" waitingTime="0.00" waitingCount="0" stopTime="0.00" timeLoss="3.90" rerouteNo="1" devices="tripinfo_NW.0 routing_NW.0" vType="car" speedFactor="0.87" vaporized=""/>
    <tripinfo id="SE.1" depart="34.50" departLane="-E3_0" departPos="5.10" departSpeed="17.07" departDelay="0.00" arrival="105.00" arrivalLane="E2_0" arrivalPos="489.88" arrivalSpeed="13.27" duration="70.50" routeLength="976.94" waitingTime="0.00" waitingCount="0" stopTime="0.00" timeLoss="3.94" rerouteNo="1" devices="tripinfo_SE.1 routing_SE.1" vType="car" speedFactor="0.85" vaporized=""/>
    <tripinfo id="ES.2" depart="50.40" departLane="-E2_3" departPos="5.10" departSpeed="15.03" departDelay="0.00" arrival="112.30" arrivalLane="E3_0" arrivalPos="483.00" arrivalSpeed="19.32" duration="61.90" routeLength="1001.38" waitingTime="0.00" waitingCount="0" stopTime="0.00" timeLoss="1.72" rerouteNo="1" devices="tripinfo_ES.2 routing_ES.2" vType="car" speedFactor="0.96" vaporized=""/>
    <tripinfo id="SE.2" depart="46.90" departLane="-E3_0" departPos="5.10" departSpeed="18.18" departDelay="0.00" arrival="114.50" arrivalLane="E2_0" arrivalPos="489.88" arrivalSpeed="14.14" duration="67.60" routeLength="976.94" waitingTime="0.00" waitingCount="0" stopTime="0.00" timeLoss="5.03" rerouteNo="1" devices="tripinfo_SE.2 routing_SE.2" vType="car" speedFactor="0.90" vaporized=""/>
    <tripinfo id="WS.1" depart="38.60" departLane="E0_0" departPos="5.10" departSpeed="15.85" departDelay="0.00" arrival="115.80" arrivalLane="E3_0" arrivalPos="483.00" arrivalSpeed="20.27" duration="77.20" routeLength="974.37" waitingTime="12.90" waitingCount="1" stopTime="0.00" timeLoss="21.63" rerouteNo="1" devices="tripinfo_WS.1 routing_WS.1" vType="car" speedFactor="1.01" vaporized=""/>
    <tripinfo id="EN.0" depart="50.30" departLane="-E2_0" departPos="5.10" departSpeed="16.50" departDelay="0.00" arrival="121.20" arrivalLane="-E1_0" arrivalPos="483.27" arrivalSpeed="21.22" duration="70.90" routeLength="980.61" waitingTime="6.00" waitingCount="1" stopTime="0.00" timeLoss="17.21" rerouteNo="1" devices="tripinfo_EN.0 routing_EN.0" vType="car" speedFactor="1.05" vaporized=""/>
    <tripinfo id="EW.0" depart="6.90" departLane="-E2_0" departPos="5.10" departSpeed="16.19" departDelay="0.00" arrival="123.40" arrivalLane="-E0_0" arrivalPos="483.33" arrivalSpeed="16.19" duration="116.50" routeLength="1001.02" waitingTime="46.80" waitingCount="1" stopTime="0.00" timeLoss="54.58" rerouteNo="1" devices="tripinfo_EW.0 routing_EW.0" vType="car" speedFactor="1.03" vaporized=""/>
    <tripinfo id="EW.1" depart="10.30" departLane="-E2_1" departPos="5.10" departSpeed="15.01" departDelay="0.00" arrival="125.60" arrivalLane="-E0_1" arrivalPos="483.33" arrivalSpeed="15.01" duration="115.30" routeLength="1001.02" waitingTime="40.80" waitingCount="1" stopTime="0.00" timeLoss="48.57" rerouteNo="1" devices="tripinfo_EW.1 routing_EW.1" vType="car" speedFactor="0.96" vaporized=""/>
    <tripinfo id="EW.2" depart="35.80" departLane="-E2_0" departPos="5.10" departSpeed="16.78" departDelay="0.00" arrival="126.20" arrivalLane="-E0_0" arrivalPos="483.33" arrivalSpeed="16.63" duration="90.40" routeLength="1001.02" waitingTime="19.70" waitingCount="1" stopTime="0.00" timeLoss="30.71" rerouteNo="1" devices="tripinfo_EW.2 routing_EW.2" vType="car" speedFactor="1.07" vaporized=""/>
    <tripinfo id="EN.1" depart="56.80" departLane="-E2_0" departPos="5.10" departSpeed="14.47" departDelay="0.00" arrival="127.10" arrivalLane="-E1_0" arrivalPos="483.27" arrivalSpeed="18.60" duration="70.30" routeLength="980.61" waitingTime="0.00" waitingCount="0" stopTime="0.00" timeLoss="8.99" rerouteNo="1" devices="tripinfo_EN.1 routing_EN.1" vType="car" speedFactor="0.92" vaporized=""/>
    <tripinfo id="EW.3" depart="37.10" departLane="-E2_1" departPos="5.10" departSpeed="15.81" departDelay="0.00" arrival="128.30" arrivalLane="-E0_1" arrivalPos="483.33" arrivalSpeed="15.65" duration="91.20" routeLength="1001.02" waitingTime="15.90" waitingCount="1" stopTime="0.00" timeLoss="27.87" rerouteNo="1" devices="tripinfo_EW.3 routing_EW.3" vType="car" speedFactor="1.01" vaporized=""/>
    <tripinfo id="WE.0" depart="14.40" departLane="E0_1" departPos="5.10" departSpeed="14.16" departDelay="0.00" arrival="128.40" arrivalLane="E2_0" arrivalPos="489.88" arrivalSpeed="14.16" duration="114.00" routeLength="1001.01" waitingTime="35.50" waitingCount="1" stopTime="0.00" timeLoss="43.25" rerouteNo="1" devices="tripinfo_WE.0 routing_WE.0" vType="car" speedFactor="0.90" vaporized=""/>
    <tripinfo id="EW.4" depart="62.30" departLane="-E2_1" departPos="5.10" departSpeed="15.80" departDelay="0.00" arrival="130.50" arrivalLane="-E0_0" arrivalPos="483.33" arrivalSpeed="15.79" duration="68.20" routeLength="1001.02" waitingTime="0.00" waitingCount="0" stopTime="0.00" timeLoss="4.82" rerouteNo="1" devices="tripinfo_EW.4 routing_EW.4" vType="car" speedFactor="1.01" vaporized=""/>
    <tripinfo id="EN.2" depart="70.70" departLane="-E2_0" departPos="5.10" departSpeed="16.46" departDelay="0.00" arrival="131.20" arrivalLane="-E1_0" arrivalPos="483.27" arrivalSpeed="21.08" duration="60.50" routeLength="980.61" waitingTime="0.00" waitingCount="0" stopTime="0.00" timeLoss="6.59" rerouteNo="1" devices="tripinfo_EN.2 routing_EN.2" vType="car" speedFactor="1.05" vaporized=""/>
    <tripinfo id="EN.3" depart="71.20" departLane="-E2_0" departPos="5.10" departSpeed="4.98" departDelay="0.40" arrival="133.80" arrivalLane="-E1_0" arrivalPos="483.27" arrivalSpeed="21.58" duration="62.60" routeLength="980.61" waitingTime="0.00" waitingCount="0" stopTime="0.00" timeLoss="10.68" rerouteNo="1" devices="tripinfo_EN.3 routing_EN.3" vType="car" speedFactor="1.09" vaporized=""/>
    <tripinfo id="EW.5" depart="66.80" departLane="-E2_0" departPos="5.10" departSpeed="15.10" departDelay="0.00" arrival="135.10" arrivalLane="-E0_0" arrivalPos="483.33" arrivalSpeed="15.09" duration="68.30" routeLength="1001.02" waitingTime="0.00" waitingCount="0" stopTime="0.00" timeLoss="1.95" rerouteNo="1" devices="tripinfo_EW.5 routing_EW.5" vType="car" speedFactor="0.96" vaporized=""/>
    <tripinfo id="EN.4" depart="73.10" departLane="-E2_0" departPos="5.10" departSpeed="15.19" departDelay="0.00" arrival="138.30" arrivalLane="-E1_0" arrivalPos="483.27" arrivalSpeed="19.51" duration="65.20" routeLength="980.61" waitingTime="0.00" waitingCount="0" stopTime="0.00" timeLoss="6.79" rerouteNo="1" devices="tripinfo_EN.4 routing_EN.4" vType="car" speedFactor="0.97" vaporized=""/>
    <tripinfo id="EW.7" depart="83.70" departLane="-E2_0" departPos="5.10" departSpeed="17.55" departDelay="0.00" arrival="141.70" arrivalLane="-E0_0" arrivalPos="483.33" arrivalSpeed="17.55" duration="58.00" routeLength="1001.02" waitingTime="0.00" waitingCount="0" stopTime="0.00" timeLoss="0.89" rerouteNo="1" devices="tripinfo_EW.7 routing_EW.7" vType="car" speedFactor="1.12" vaporized=""/>
    <tripinfo id="WS.2" depart="85.20" departLane="E0_0" departPos="5.10" departSpeed="15.48" departDelay="0.00" arrival="146.60" arrivalLane="E3_0" arrivalPos="483.00" arrivalSpeed="19.90" duration="61.40" routeLength="974.37" waitingTime="0.00" waitingCount="0" stopTime="0.00" timeLoss="4.46" rerouteNo="1" devices="tripinfo_WS.2 routing_WS.2" vType="car" speedFactor="0.99" vaporized=""/>
    <tripinfo id="WS.3" depart="91.20" departLane="E0_0" departPos="5.10" departSpeed="17.43" departDelay="0.00" arrival="148.90" arrivalLane="E3_0" arrivalPos="483.00" arrivalSpeed="21.69" duration="57.70" routeLength="974.37" waitingTime="0.00" waitingCount="0" stopTime="0.00" timeLoss="7.12" rerouteNo="1" devices="tripinfo_WS.3 routing_WS.3" vType="car" speedFactor="1.11" vaporized=""/>
    <tripinfo id="SE.3" depart="84.60" departLane="-E3_0" departPos="5.10" departSpeed="22.58" departDelay="0.00" arrival="149.50" arrivalLane="E2_0" arrivalPos="489.88" arrivalSpeed="17.57" duration="64.90" routeLength="976.94" waitingTime="3.90" waitingCount="1" stopTime="0.00" timeLoss="14.51" rerouteNo="1" devices="tripinfo_SE.3 routing_SE.3" vType="car" speedFactor="1.12" vaporized=""/>
    <tripinfo id="NW.1" depart="66.20" departLane="E1_0" departPos="5.10" departSpeed="19.34" departDelay="0.00" arrival="153.40" arrivalLane="-E0_0" arrivalPos="483.33" arrivalSpeed="15.04" duration="87.20" routeLength="970.93" waitingTime="21.20" waitingCount="1" stopTime="0.00" timeLoss="28.86" rerouteNo="1" devices="tripinfo_NW.1 routing_NW.1" vType="car" speedFactor="0.96" vaporized=""/>
    <tripinfo id="SW.0" depart="31.00" departLane="-E3_3" departPos="5.10" departSpeed="21.41" departDelay="0.00" arrival="153.90" arrivalLane="-E0_1" arrivalPos="483.33" arrivalSpeed="16.66" duration="122.90" routeLength="995.53" waitingTime="60.70" waitingCount="1" stopTime="0.00" timeLoss="68.89" rerouteNo="1" devices="tripinfo_SW.0 routing_SW.0" vType="car" speedFactor="1.06" vaporized=""/>
    <tripinfo id="NW.2" depart="71.20" departLane="E1_0" departPos="5.10" departSpeed="22.49" departDelay="0.00" arrival="155.40" arrivalLane="-E0_0" arrivalPos="483.33" arrivalSpeed="16.66" duration="84.20" routeLength="970.93" waitingTime="17.80" waitingCount="1" stopTime="0.00" timeLoss="33.99" rerouteNo="1" devices="tripinfo_NW.2 routing_NW.2" vType="car" speedFactor="1.12" vaporized=""/>
    <tripinfo id="SW.1" depart="32.40" departLane="-E3_3" departPos="5.10" departSpeed="20.78" departDelay="0.00" arrival="157.90" arrivalLane="-E0_1" arrivalPos="483.33" arrivalSpeed="16.14" duration="125.50" routeLength="995.53" waitingTime="58.70" waitingCount="1" stopTime="0.00" timeLoss="69.84" rerouteNo="1" devices="tripinfo_SW.1 routing_SW.1" vType="car" speedFactor="1.03" vaporized=""/>
    <tripinfo id="NW.3" depart="101.30" departLane="E1_0" departPos="5.10" departSpeed="22.47" departDelay="0.00" arrival="158.50" arrivalLane="-E0_0" arrivalPos="483.33" arrivalSpeed="17.34" duration="57.20" routeLength="970.93" waitingTime="0.00" waitingCount="0" stopTime="0.00" timeLoss="6.94" rerouteNo="1" devices="tripinfo_NW.3 routing_NW.3" vType="car" speedFactor="1.12" vaporized=""/>
    <tripinfo id="SW.2" depart="85.50" departLane="-E3_3" departPos="5.10" departSpeed="21.18" departDelay="0.00" arrival="160.70" arrivalLane="-E0_0" arrivalPos="483.33" arrivalSpeed="16.21" duration="75.20" routeLength="995.53" waitingTime="7.90" waitingCount="1" stopTime="0.00" timeLoss="20.59" rerouteNo="1" devices="tripinfo_SW.2 routing_SW.2" vType="car" speedFactor="1.05" vaporized=""/>
    <tripinfo id="SE.4" depart="106.10" departLane="-E3_0" departPos="5.10" departSpeed="20.93" departDelay="0.00" arrival="165.50" arrivalLane="E2_0" arrivalPos="489.88" arrivalSpeed="16.28" duration="59.40" routeLength="976.94" waitingTime="0.00" waitingCount="0" stopTime="0.00" timeLoss="5.04" rerouteNo="1" devices="tripinfo_SE.4 routing_SE.4" vType="car" speedFactor="1.04" vaporized=""/>
    <tripinfo id="NS.8" depart="33.60" departLane="E1_1" departPos="5.10" departSpeed="19.87" departDelay="0.00" arrival="174.60" arrivalLane="E3_0" arrivalPos="483.00" arrivalSpeed="20.53" duration="141.00" routeLength="995.04" waitingTime="79.50" waitingCount="1" stopTime="0.00" timeLoss="92.46" rerouteNo="1" devices="tripinfo_NS.8 routing_NS.8" vType="car" speedFactor="1.02" vaporized=""/>
    <tripinfo id="SN.5" depart="54.90" departLane="-E3_2" departPos="5.10" departSpeed="18.67" departDelay="0.00" arrival="176.70" arrivalLane="-E1_0" arrivalPos="483.27" arrivalSpeed="18.67" duration="121.80" routeLength="995.03" waitingTime="59.70" waitingCount="1" stopTime="0.00" timeLoss="68.44" rerouteNo="1" devices="tripinfo_SN.5 routing_SN.5" vType="car" speedFactor="0.93" vaporized=""/>
    <tripinfo id="NS.9" depart="51.10" departLane="E1_2" departPos="5.10" departSpeed="21.19" departDelay="0.00" arrival="177.00" arrivalLane="E3_0" arrivalPos="483.00" arrivalSpeed="21.02" duration="125.90" routeLength="995.04" waitingTime="67.20" waitingCount="1" stopTime="0.00" timeLoss="78.89" rerouteNo="1" devices="tripinfo_NS.9 routing_NS.9" vType="car" speedFactor="1.05" vaporized=""/>
    <tripinfo id="SN.6" depart="62.30" departLane="-E3_1" departPos="5.10" departSpeed="21.23" departDelay="0.00" arrival="178.10" arrivalLane="-E1_1" arrivalPos="483.27" arrivalSpeed="21.11" duration="115.80" routeLength="995.03" waitingTime="55.90" waitingCount="1" stopTime="0.00" timeLoss="68.93" rerouteNo="1" devices="tripinfo_SN.6 routing_SN.6" vType="car" speedFactor="1.06" vaporized=""/>
    <tripinfo id="NS.7" depart="32.80" departLane="E1_2" departPos="5.10" departSpeed="17.68" departDelay="0.00" arrival="178.80" arrivalLane="E3_0" arrivalPos="483.00" arrivalSpeed="17.34" duration="146.00" routeLength="995.04" waitingTime="80.30" waitingCount="1" stopTime="0.00" timeLoss="89.63" rerouteNo="1" devices="tripinfo_NS.7 routing_NS.7" vType="car" speedFactor="0.88" vaporized=""/>
    <tripinfo id="SN.4" depart="43.20" departLane="-E3_1" departPos="5.10" departSpeed="17.08" departDelay="0.00" arrival="179.20" arrivalLane="-E1_0" arrivalPos="483.27" arrivalSpeed="16.92" duration="136.00" routeLength="995.03" waitingTime="69.30" waitingCount="1" stopTime="0.00" timeLoss="77.68" rerouteNo="1" devices="tripinfo_SN.4 routing_SN.4" vType="car" speedFactor="0.85" vaporized=""/>
    <tripinfo id="NS.10" depart="53.80" departLane="E1_1" departPos="5.10" departSpeed="21.41" departDelay="0.00" arrival="179.40" arrivalLane="E3_1" arrivalPos="483.00" arrivalSpeed="21.34" duration="125.60" routeLength="995.04" waitingTime="65.70" waitingCount="1" stopTime="0.00" timeLoss="79.11" rerouteNo="1" devices="tripinfo_NS.10 routing_NS.10" vType="car" speedFactor="1.06" vaporized=""/>
    <tripinfo id="SN.7" depart="66.00" departLane="-E3_1" departPos="5.10" departSpeed="20.23" departDelay="0.00" arrival="180.80" arrivalLane="-E1_1" arrivalPos="483.27" arrivalSpeed="20.01" duration="114.80" routeLength="995.03" waitingTime="52.50" waitingCount="1" stopTime="0.00" timeLoss="65.55" rerouteNo="1" devices="tripinfo_SN.7 routing_SN.7" vType="car" speedFactor="1.01" vaporized=""/>
    <tripinfo id="NS.12" depart="57.90" departLane="E1_1" departPos="5.10" departSpeed="18.73" departDelay="0.00" arrival="180.90" arrivalLane="E3_0" arrivalPos="483.00" arrivalSpeed="18.12" duration="123.00" routeLength="995.04" waitingTime="57.60" waitingCount="1" stopTime="0.00" timeLoss="69.85" rerouteNo="1" devices="tripinfo_NS.12 routing_NS.12" vType="car" speedFactor="0.93" vaporized=""/>
    <tripinfo id="SN.9" depart="75.90" departLane="-E3_1" departPos="5.10" departSpeed="18.82" departDelay="0.00" arrival="181.30" arrivalLane="-E1_0" arrivalPos="483.27" arrivalSpeed="18.11" duration="105.40" routeLength="995.03" waitingTime="39.70" waitingCount="1" stopTime="0.00" timeLoss="52.46" rerouteNo="1" devices="tripinfo_SN.9 routing_SN.9" vType="car" speedFactor="0.94" vaporized=""/>
    <tripinfo id="NS.11" depart="55.10" departLane="E1_2" departPos="5.10" departSpeed="20.43" departDelay="0.00" arrival="182.70" arrivalLane="E3_0" arrivalPos="483.00" arrivalSpeed="19.00" duration="127.60" routeLength="995.04" waitingTime="58.60" waitingCount="2" stopTime="0.00" timeLoss="78.89" rerouteNo="1" devices="tripinfo_NS.11 routing_NS.11" vType="car" speedFactor="1.02" vaporized=""/>
    <tripinfo id="SN.10" depart="79.70" departLane="-E3_2" departPos="5.10" departSpeed="21.85" departDelay="0.00" arrival="182.70" arrivalLane="-E1_1" arrivalPos="483.27" arrivalSpeed="20.71" duration="103.00" routeLength="995.03" waitingTime="40.20" waitingCount="1" stopTime="0.00" timeLoss="57.41" rerouteNo="1" devices="tripinfo_SN.10 routing_SN.10" vType="car" speedFactor="1.09" vaporized=""/>
    <tripinfo id="SN.8" depart="71.60" departLane="-E3_2" departPos="5.10" departSpeed="20.81" departDelay="0.00" arrival="183.00" arrivalLane="-E1_0" arrivalPos="483.27" arrivalSpeed="19.04" duration="111.40" routeLength="995.03" waitingTime="42.90" waitingCount="2" stopTime="0.00" timeLoss="63.55" rerouteNo="1" devices="tripinfo_SN.8 routing_SN.8" vType="car" speedFactor="1.03" vaporized=""/>
    <tripinfo id="NS.13" depart="58.90" departLane="E1_2" departPos="5.10" departSpeed="18.65" departDelay="0.00" arrival="183.50" arrivalLane="E3_1" arrivalPos="483.00" arrivalSpeed="18.63" duration="124.60" routeLength="995.04" waitingTime="58.00" waitingCount="1" stopTime="0.00" timeLoss="71.25" rerouteNo="1" devices="tripinfo_NS.13 routing_NS.13" vType="car" speedFactor="0.93" vaporized=""/>
    <tripinfo id="SE.5" depart="121.80" departLane="-E3_0" departPos="5.10" departSpeed="20.60" departDelay="0.00" arrival="183.50" arrivalLane="E2_0" arrivalPos="489.88" arrivalSpeed="16.03" duration="61.70" routeLength="976.94" waitingTime="0.00" waitingCount="0" stopTime="0.00" timeLoss="6.53" rerouteNo="1" devices="tripinfo_SE.5 routing_SE.5" vType="car" speedFactor="1.02" vaporized=""/>
    <tripinfo id="NS.16" depart="69.60" departLane="E1_1" departPos="5.10" departSpeed="20.88" departDelay="0.00" arrival="184.60" arrivalLane="E3_0" arrivalPos="483.00" arrivalSpeed="18.12" duration="115.00" routeLength="995.04" waitingTime="50.20" waitingCount="1" stopTime="0.00" timeLoss="67.34" rerouteNo="1" devices="tripinfo_NS.16 routing_NS.16" vType="car" speedFactor="1.04" vaporized=""/>
    <tripinfo id="SN.12" depart="86.30" departLane="-E3_2" departPos="5.10" departSpeed="19.33" departDelay="0.00" arrival="185.10" arrivalLane="-E1_0" arrivalPos="483.27" arrivalSpeed="18.62" duration="98.80" routeLength="995.03" waitingTime="29.00" waitingCount="1" stopTime="0.00" timeLoss="47.24" rerouteNo="1" devices="tripinfo_SN.12 routing_SN.12" vType="car" speedFactor="0.96" vaporized=""/>
    <tripinfo id="NS.14" depart="60.10" departLane="E1_1" departPos="5.10" departSpeed="20.73" departDelay="0.00" arrival="185.50" arrivalLane="E3_1" arrivalPos="483.00" arrivalSpeed="19.78" duration="125.40" routeLength="995.04" waitingTime="57.50" waitingCount="1" stopTime="0.00" timeLoss="77.38" rerouteNo="1" devices="tripinfo_NS.14 routing_NS.14" vType="car" speedFactor="1.03" vaporized=""/>
    <tripinfo id="SN.11" depart="81.20" departLane="-E3_1" departPos="5.10" departSpeed="18.69" departDelay="0.00" arrival="185.80" arrivalLane="-E1_1" arrivalPos="483.27" arrivalSpeed="18.60" duration="104.60" routeLength="995.03" waitingTime="38.10" waitingCount="1" stopTime="0.00" timeLoss="51.34" rerouteNo="1" devices="tripinfo_SN.11 routing_SN.11" vType="car" speedFactor="0.93" vaporized=""/>
    <tripinfo id="NS.15" depart="63.10" departLane="E1_2" departPos="5.10" departSpeed="21.63" departDelay="0.00" arrival="186.30" arrivalLane="E3_0" arrivalPos="483.00" arrivalSpeed="19.46" duration="123.20" routeLength="995.04" waitingTime="51.20" waitingCount="2" stopTime="0.00" timeLoss="77.20" rerouteNo="1" devices="tripinfo_NS.15 routing_NS.15" vType="car" speedFactor="1.08" vaporized=""/>
    <tripinfo id="SN.13" depart="93.90" departLane="-E3_1" departPos="5.10" departSpeed="19.63" departDelay="0.00" arrival="187.20" arrivalLane="-E1_0" arrivalPos="483.27" arrivalSpeed="18.10" duration="93.30" routeLength="995.03" waitingTime="22.00" waitingCount="2" stopTime="0.00" timeLoss="42.57" rerouteNo="1" devices="tripinfo_SN.13 routing_SN.13" vType="car" speedFactor="0.98" vaporized=""/>
    <tripinfo id="NS.17" depart="70.70" departLane="E1_2" departPos="5.10" departSpeed="21.17" departDelay="0.00" arrival="187.40" arrivalLane="E3_1" arrivalPos="483.00" arrivalSpeed="20.04" duration="116.70" routeLength="995.04" waitingTime="50.90" waitingCount="1" stopTime="0.00" timeLoss="69.69" rerouteNo="1" devices="tripinfo_NS.17 routing_NS.17" vType="car" speedFactor="1.05" vaporized=""/>
    <tripinfo id="SN.14" depart="99.70" departLane="-E3_2" departPos="5.10" departSpeed="19.53" departDelay="0.00" arrival="188.10" arrivalLane="-E1_1" arrivalPos="483.27" arrivalSpeed="19.03" duration="88.40" routeLength="995.03" waitingTime="19.40" waitingCount="1" stopTime="0.00" timeLoss="37.37" rerouteNo="1" devices="tripinfo_SN.14 routing_SN.14" vType="car" speedFactor="0.97" vaporized=""/>
    <tripinfo id="SN.16" depart="107.30" departLane="-E3_1" departPos="5.10" departSpeed="22.09" departDelay="0.00" arrival="188.80" arrivalLane="-E1_0" arrivalPos="483.27" arrivalSpeed="19.32" duration="81.50" routeLength="995.03" waitingTime="10.70" waitingCount="1" stopTime="0.00" timeLoss="36.42" rerouteNo="1" devices="tripinfo_SN.16 routing_SN.16" vType="car" speedFactor="1.10" vaporized=""/>
    <tripinfo id="NS.18" depart="75.70" departLane="E1_1" departPos="5.10" departSpeed="17.93" departDelay="0.00" arrival="189.10" arrivalLane="E3_0" arrivalPos="483.00" arrivalSpeed="17.77" duration="113.40" routeLength="995.04" waitingTime="44.10" waitingCount="1" stopTime="0.00" timeLoss="57.85" rerouteNo="1" devices="tripinfo_NS.18 routing_NS.18" vType="car" speedFactor="0.89" vaporized=""/>
    <tripinfo id="NS.19" depart="80.30" departLane="E1_2" departPos="5.10" departSpeed="21.39" departDelay="0.00" arrival="189.30" arrivalLane="E3_1" arrivalPos="483.00" arrivalSpeed="20.16" duration="109.00" routeLength="995.04" waitingTime="44.30" waitingCount="1" stopTime="0.00" timeLoss="62.42" rerouteNo="1" devices="tripinfo_NS.19 routing_NS.19" vType="car" speedFactor="1.06" vaporized=""/>